 Gaussian 16, Revision A.03,
 Gaussian 16:  ES64L-G16RevA.03 25-Dec-2016

 ----------
 #p opt pm3
 ----------

 -------------------------------------------------
 Conformer number 000. Energy MM = 24.913 kcal/mol
 -------------------------------------------------
 Symbolic Z-matrix:
 Charge =  0 Multiplicity = 1

 SCF Done:  E(RPM3) = -0.212417557785E-01 A.U. after   12 cycles
 SCF Done:  E(RPM3) = -0.242869973732E-01 A.U. after   11 cycles
 SCF Done:  E(RPM3) = -0.256057108293E-01 A.U. after   11 cycles
 SCF Done:  E(RPM3) = -0.239665433372E-01 A.U. after   11 cycles
 SCF Done:  E(RPM3) = -0.265529628552E-01 A.U. after   11 cycles
 SCF Done:  E(RPM3) = -0.272547927858E-01 A.U. after   11 cycles
 SCF Done:  E(RPM3) = -0.278540054946E-01 A.U. after   12 cycles
 SCF Done:  E(RPM3) = -0.279450568915E-01 A.U. after   11 cycles
 SCF Done:  E(RPM3) = -0.281260445597E-01 A.U. after   10 cycles
 SCF Done:  E(RPM3) = -0.281915622545E-01 A.U. after   10 cycles
 SCF Done:  E(RPM3) = -0.282527907045E-01 A.U. after   10 cycles
 SCF Done:  E(RPM3) = -0.282767560172E-01 A.U. after   10 cycles
 SCF Done:  E(RPM3) = -0.283142706749E-01 A.U. after   10 cycles
 SCF Done:  E(RPM3) = -0.283285807357E-01 A.U. after   10 cycles
 SCF Done:  E(RPM3) = -0.283311789542E-01 A.U. after   10 cycles
 SCF Done:  E(RPM3) = -0.283326333079E-01 A.U. after    9 cycles
 SCF Done:  E(RPM3) = -0.283332156679E-01 A.U. after    9 cycles
 SCF Done:  E(RPM3) = -0.283333932715E-01 A.U. after    9 cycles
 SCF Done:  E(RPM3) = -0.283334171546E-01 A.U. after    8 cycles
 SCF Done:  E(RPM3) = -0.283334254624E-01 A.U. after    8 cycles
 Optimization completed.
    -- Stationary point found.

                         Standard orientation:
 ---------------------------------------------------------------------
 Center     Atomic      Atomic             Coordinates (Angstroms)
 Number     Number       Type             X           Y           Z
 ---------------------------------------------------------------------
      1          6           0        0.643739   -0.481038   -0.740223
      2          1           0        0.695918   -1.565421   -0.966364
      3          1           0        0.306542    0.003410   -1.678221
      4          6           0        1.994975    0.040890   -0.359478
      5          6           0        2.245879    1.472624   -0.666289
      6          1           0        3.232632    1.804335   -0.303530
      7          1           0        2.211024    1.649447   -1.749690
      8          1           0        1.483379    2.111000   -0.199209
      9          6           0        2.899132   -0.760501    0.220079
     10          1           0        2.648379   -1.811190    0.415905
     11          6           0        4.254536   -0.339813    0.634779
     12          1           0        4.438508    0.730579    0.444360
     13          1           0        4.403442   -0.518793    1.707741
     14          1           0        5.018781   -0.911845    0.092250
     15          6           0       -4.159069   -0.659263   -0.267355
     16          1           0       -4.062913   -1.696873   -0.613460
     17          1           0       -4.849255   -0.657161    0.587276
     18          1           0       -4.630824   -0.082798   -1.074887
     19          6           0       -2.852769   -0.056578    0.112774
     20          6           0       -2.923680    1.338245    0.620368
     21          1           0       -1.922049    1.770928    0.778529
     22          1           0       -3.460651    1.985266   -0.085790
     23          1           0       -3.458303    1.374127    1.578959
     24          6           0       -1.711186   -0.748313   -0.001998
     25          1           0       -1.730192   -1.776197   -0.388359
     26          6           0       -0.369128   -0.229398    0.370711
     27          1           0       -0.416797    0.857974    0.608842
     28          1           0       -0.042204   -0.727913    1.305439
 ---------------------------------------------------------------------

 The electronic state is 1-A.
 Alpha  occ. eigenvalues --   -1.46958  -1.36638  -1.19414  -1.07498  -1.01533
 Alpha  occ. eigenvalues --   -0.96532  -0.86780  -0.78717  -0.67181  -0.64778
 Alpha  occ. eigenvalues --   -0.61274  -0.59495  -0.57495  -0.56755  -0.55161
 Alpha  occ. eigenvalues --   -0.53463  -0.51324  -0.50624  -0.49068  -0.48372
 Alpha  occ. eigenvalues --   -0.48326  -0.47750  -0.47349  -0.46846  -0.44569
 Alpha  occ. eigenvalues --   -0.43746  -0.42173  -0.35072  -0.34364
 Alpha virt. eigenvalues --    0.03532   0.04202   0.12017   0.12730   0.13351
 Alpha virt. eigenvalues --    0.13582   0.13721   0.14241   0.14793   0.14885
 Alpha virt. eigenvalues --    0.15501   0.15795   0.15930   0.16324   0.16347

 Mulliken charges:
               1
     1  C   -0.053895
     2  H    0.052724
     3  H    0.055853
     4  C   -0.128110
     5  C   -0.075262
     6  H    0.049450
     7  H    0.046748
     8  H    0.046375
     9  C   -0.150547
    10  H    0.098578
    11  C   -0.078859
    12  H    0.047753
    13  H    0.044210
    14  H    0.044800
    15  C   -0.068708
    16  H    0.041610
    17  H    0.043562
    18  H    0.043961
    19  C   -0.122911
    20  C   -0.076305
    21  H    0.049962
    22  H    0.045338
    23  H    0.046285
    24  C   -0.156865
    25  H    0.101233
    26  C   -0.068712
    27  H    0.062912
    28  H    0.058822
 Sum of Mulliken charges =  -0.00000

 Dipole moment (field-independent basis, Debye):
    X=             -0.0869    Y=              0.3354    Z=              0.0726  Tot=              0.3540
 N-N= 3.036101939173D+02 E-N=-4.893840688748D+02  KE=-7.910787978432D+01
 Leave Link  601 at Tue Jul 27 12:13:43 2021, MaxMem=   131072000 cpu:               0.0 elap:               0.1
 (Enter /opt/g16/l9999.exe)
 1\1\GINC-TOTEM\FOpt\RPM3\ZDO\C10H18\JRAMOS\27-Jul-2021\0\\#p opt pm3\\
 Conformer number 000. Energy MM = 24.913 kcal/mol\\0,1\C,2.2151210443,
 1.4138858898,-9.1466802582\H,1.891074561,0.4391250603,-9.5645129666\H,
 2.0952007418,2.1460272216,-9.9699788031\C,3.6522760216,1.353841128,-8.
 7293124796\C,4.3966216894,2.6382963817,-8.7847542523\H,5.4264441902,2.
 5337276985,-8.405493353\H,4.4563164316,3.0082168872,-9.8171471329\H,3.
 8927361153,3.407321416,-8.183261235\C,4.2023419575,0.1969515057,-8.336

 Normal termination of Gaussian 16 at Tue Jul 27 12:13:43 2021.
