 Gaussian 16, Revision A.03,
 Gaussian 16:  ES64L-G16RevA.03 25-Dec-2016

 ----------
 #p opt pm3
 ----------

 -------------------------------------------------
 Conformer number 008. Energy MM = 26.045 kcal/mol
 -------------------------------------------------
 Symbolic Z-matrix:
 Charge =  0 Multiplicity = 1

 SCF Done:  E(RPM3) = -0.194237838966E-01 A.U. after   12 cycles
 SCF Done:  E(RPM3) = -0.220545683117E-01 A.U. after   11 cycles
 SCF Done:  E(RPM3) = -0.230578942255E-01 A.U. after   11 cycles
 SCF Done:  E(RPM3) = -0.237876451791E-01 A.U. after   11 cycles
 SCF Done:  E(RPM3) = -0.243859912741E-01 A.U. after   11 cycles
 SCF Done:  E(RPM3) = -0.253962002216E-01 A.U. after   11 cycles
 SCF Done:  E(RPM3) = -0.260443870907E-01 A.U. after   11 cycles
 SCF Done:  E(RPM3) = -0.266542962024E-01 A.U. after   11 cycles
 SCF Done:  E(RPM3) = -0.271293221091E-01 A.U. after   11 cycles
 SCF Done:  E(RPM3) = -0.230721029461E-01 A.U. after   12 cycles
 SCF Done:  E(RPM3) = -0.285039355286E-01 A.U. after   10 cycles
 SCF Done:  E(RPM3) = -0.285128231545E-01 A.U. after   10 cycles
 SCF Done:  E(RPM3) = -0.285180397425E-01 A.U. after    9 cycles
 SCF Done:  E(RPM3) = -0.285311187854E-01 A.U. after   10 cycles
 SCF Done:  E(RPM3) = -0.285404080898E-01 A.U. after   10 cycles
 SCF Done:  E(RPM3) = -0.285411709550E-01 A.U. after    9 cycles
 SCF Done:  E(RPM3) = -0.285412921494E-01 A.U. after    8 cycles
 SCF Done:  E(RPM3) = -0.285415082087E-01 A.U. after    9 cycles
 SCF Done:  E(RPM3) = -0.285416612473E-01 A.U. after    9 cycles
 SCF Done:  E(RPM3) = -0.285416864974E-01 A.U. after    8 cycles
 Optimization completed.
    -- Stationary point found.

                         Standard orientation:
 ---------------------------------------------------------------------
 Center     Atomic      Atomic             Coordinates (Angstroms)
 Number     Number       Type             X           Y           Z
 ---------------------------------------------------------------------
      1          6           0        0.743582   -0.864855    0.975784
      2          1           0        0.372733   -0.414945    1.918030
      3          1           0        1.134977   -1.863890    1.254290
      4          6           0        1.852933   -0.028483    0.413469
      5          6           0        1.784047    1.426725    0.704247
      6          1           0        2.586864    1.987809    0.199198
      7          1           0        0.816539    1.837020    0.368194
      8          1           0        1.870208    1.613583    1.782763
      9          6           0        2.832531   -0.591355   -0.307371
     10          1           0        2.822819   -1.674609   -0.484854
     11          6           0        3.965796    0.144033   -0.908033
     12          1           0        3.902412    1.230447   -0.730439
     13          1           0        4.918528   -0.207750   -0.490680
     14          1           0        3.998283   -0.015698   -1.993793
     15          6           0       -3.367815    1.431266   -0.304128
     16          1           0       -2.725283    2.320642   -0.347045
     17          1           0       -3.985678    1.423938   -1.212337
     18          1           0       -4.042930    1.551039    0.554302
     19          6           0       -2.591525    0.167428   -0.188860
     20          6           0       -3.402185   -1.077800   -0.172307
     21          1           0       -2.797326   -1.956100    0.108195
     22          1           0       -4.231791   -0.999336    0.542543
     23          1           0       -3.832773   -1.271663   -1.163763
     24          6           0       -1.254258    0.179613   -0.110443
     25          1           0       -0.703727    1.136141   -0.118597
     26          6           0       -0.406919   -1.037640   -0.011212
     27          1           0       -1.029366   -1.912362    0.286153
     28          1           0       -0.011609   -1.277860   -1.019036
 ---------------------------------------------------------------------

 The electronic state is 1-A.
 Alpha  occ. eigenvalues --   -1.47575  -1.35959  -1.19255  -1.07240  -1.01010
 Alpha  occ. eigenvalues --   -0.97911  -0.86724  -0.78439  -0.66758  -0.65321
 Alpha  occ. eigenvalues --   -0.61070  -0.59298  -0.58755  -0.55884  -0.55279
 Alpha  occ. eigenvalues --   -0.53509  -0.50891  -0.50198  -0.49681  -0.48359
 Alpha  occ. eigenvalues --   -0.48188  -0.47827  -0.46932  -0.46549  -0.44480
 Alpha  occ. eigenvalues --   -0.44093  -0.41919  -0.34867  -0.34302
 Alpha virt. eigenvalues --    0.03652   0.04256   0.12297   0.12413   0.13374
 Alpha virt. eigenvalues --    0.13503   0.13840   0.13912   0.14833   0.15074
 Alpha virt. eigenvalues --    0.15309   0.15730   0.15958   0.16125   0.16393

 Mulliken charges:
               1
     1  C   -0.053394
     2  H    0.057107
     3  H    0.050606
     4  C   -0.125457
     5  C   -0.082891
     6  H    0.050377
     7  H    0.053153
     8  H    0.047572
     9  C   -0.152942
    10  H    0.097986
    11  C   -0.078180
    12  H    0.047645
    13  H    0.044490
    14  H    0.044101
    15  C   -0.067364
    16  H    0.040793
    17  H    0.043258
    18  H    0.043600
    19  C   -0.125500
    20  C   -0.075463
    21  H    0.048940
    22  H    0.044777
    23  H    0.046326
    24  C   -0.166392
    25  H    0.112783
    26  C   -0.064763
    27  H    0.057870
    28  H    0.060961
 Sum of Mulliken charges =   0.00000

 Dipole moment (field-independent basis, Debye):
    X=             -0.1673    Y=              0.0804    Z=             -0.0317  Tot=              0.1884
 N-N= 3.075922217247D+02 E-N=-4.973536837975D+02  KE=-7.912241967921D+01
 Leave Link  601 at Fri Sep 17 19:55:48 2021, MaxMem=   131072000 cpu:               0.0 elap:               0.1
 (Enter /opt/g16/l9999.exe)
 1\1\GINC-TOTEM\FOpt\RPM3\ZDO\C10H18\JRAMOS\17-Sep-2021\0\\#p opt pm3\\
 Conformer number 008. Energy MM = 26.045 kcal/mol\\0,1\C,2.5591045782,
 0.8372850872,-9.1073676113\H,2.5424688674,-0.2432918769,-9.3520111542\
 H,2.3249108417,1.3628387914,-10.0548773826\C,3.9262073861,1.2325946713
 ,-8.637116162\C,4.7047061943,0.1789348829,-7.9366391728\H,5.6655132253
 ,0.5599046653,-7.5543858009\H,4.128958325,-0.215515893,-7.0820818415\H
 ,4.9199794307,-0.660387512,-8.6109778353\C,4.3877512062,2.4727061379,-

 Normal termination of Gaussian 16 at Fri Sep 17 19:55:49 2021.
