 Gaussian 16, Revision A.03,
 Gaussian 16:  ES64L-G16RevA.03 25-Dec-2016

 ----------
 #p opt pm3
 ----------

 -------------------------------------------------
 Conformer number 030. Energy MM = 27.340 kcal/mol
 -------------------------------------------------
 Symbolic Z-matrix:
 Charge =  0 Multiplicity = 1

 SCF Done:  E(RPM3) = -0.175043641796E-01 A.U. after   12 cycles
 SCF Done:  E(RPM3) = -0.211624148752E-01 A.U. after   11 cycles
 SCF Done:  E(RPM3) = -0.226392663120E-01 A.U. after   12 cycles
 SCF Done:  E(RPM3) = -0.233354170770E-01 A.U. after   11 cycles
 SCF Done:  E(RPM3) = -0.236506640883E-01 A.U. after   11 cycles
 SCF Done:  E(RPM3) = -0.244653569096E-01 A.U. after   10 cycles
 SCF Done:  E(RPM3) = -0.252997667373E-01 A.U. after   12 cycles
 SCF Done:  E(RPM3) = -0.257380573840E-01 A.U. after   11 cycles
 SCF Done:  E(RPM3) = -0.260679908470E-01 A.U. after   12 cycles
 SCF Done:  E(RPM3) = -0.262629986932E-01 A.U. after   11 cycles
 SCF Done:  E(RPM3) = -0.282824233320E-01 A.U. after   11 cycles
 SCF Done:  E(RPM3) = -0.283839875505E-01 A.U. after   11 cycles
 SCF Done:  E(RPM3) = -0.285298940872E-01 A.U. after    7 cycles
 SCF Done:  E(RPM3) = -0.285388970020E-01 A.U. after   10 cycles
 SCF Done:  E(RPM3) = -0.285402304298E-01 A.U. after    9 cycles
 SCF Done:  E(RPM3) = -0.285407784882E-01 A.U. after    9 cycles
 SCF Done:  E(RPM3) = -0.285410637929E-01 A.U. after    8 cycles
 SCF Done:  E(RPM3) = -0.285414246787E-01 A.U. after    9 cycles
 SCF Done:  E(RPM3) = -0.285416078410E-01 A.U. after    9 cycles
 SCF Done:  E(RPM3) = -0.285416854513E-01 A.U. after    8 cycles
 Optimization completed.
    -- Stationary point found.

                         Standard orientation:
 ---------------------------------------------------------------------
 Center     Atomic      Atomic             Coordinates (Angstroms)
 Number     Number       Type             X           Y           Z
 ---------------------------------------------------------------------
      1          6           0        0.743462    0.865124    0.975442
      2          1           0        1.134874    1.864223    1.253737
      3          1           0        0.372498    0.415469    1.917759
      4          6           0        1.852844    0.028574    0.413432
      5          6           0        1.783869   -1.426588    0.704409
      6          1           0        2.586867   -1.987729    0.199703
      7          1           0        1.869641   -1.613332    1.782968
      8          1           0        0.816486   -1.836908    0.368016
      9          6           0        2.832589    0.591278   -0.307365
     10          1           0        2.822907    1.674491   -0.485125
     11          6           0        3.965972   -0.144283   -0.907619
     12          1           0        3.902536   -1.230651   -0.729744
     13          1           0        3.998696    0.015145   -1.993418
     14          1           0        4.918620    0.207603   -0.490163
     15          6           0       -3.367668   -1.431390   -0.304021
     16          1           0       -2.725070   -2.320747   -0.346343
     17          1           0       -4.043200   -1.550942    0.554110
     18          1           0       -3.985085   -1.424374   -1.212537
     19          6           0       -2.591499   -0.167479   -0.188807
     20          6           0       -3.402257    1.077666   -0.171939
     21          1           0       -2.797580    1.955853    0.109328
     22          1           0       -3.832331    1.272071   -1.163519
     23          1           0       -4.232243    0.998795    0.542417
     24          6           0       -1.254210   -0.179546   -0.110849
     25          1           0       -0.703602   -1.136027   -0.119330
     26          6           0       -0.406943    1.037753   -0.011681
     27          1           0       -0.011524    1.277930   -1.019470
     28          1           0       -1.029448    1.912478    0.285606
 ---------------------------------------------------------------------

 The electronic state is 1-A.
 Alpha  occ. eigenvalues --   -1.47575  -1.35958  -1.19255  -1.07240  -1.01011
 Alpha  occ. eigenvalues --   -0.97911  -0.86724  -0.78439  -0.66758  -0.65321
 Alpha  occ. eigenvalues --   -0.61070  -0.59298  -0.58754  -0.55884  -0.55279
 Alpha  occ. eigenvalues --   -0.53509  -0.50891  -0.50198  -0.49682  -0.48359
 Alpha  occ. eigenvalues --   -0.48187  -0.47826  -0.46932  -0.46549  -0.44480
 Alpha  occ. eigenvalues --   -0.44093  -0.41919  -0.34867  -0.34301
 Alpha virt. eigenvalues --    0.03651   0.04256   0.12297   0.12413   0.13374
 Alpha virt. eigenvalues --    0.13503   0.13840   0.13912   0.14833   0.15074
 Alpha virt. eigenvalues --    0.15309   0.15730   0.15958   0.16125   0.16392

 Mulliken charges:
               1
     1  C   -0.053393
     2  H    0.050604
     3  H    0.057107
     4  C   -0.125456
     5  C   -0.082896
     6  H    0.050378
     7  H    0.047576
     8  H    0.053154
     9  C   -0.152947
    10  H    0.097988
    11  C   -0.078182
    12  H    0.047647
    13  H    0.044101
    14  H    0.044490
    15  C   -0.067366
    16  H    0.040793
    17  H    0.043600
    18  H    0.043260
    19  C   -0.125488
    20  C   -0.075460
    21  H    0.048940
    22  H    0.046323
    23  H    0.044779
    24  C   -0.166397
    25  H    0.112783
    26  C   -0.064764
    27  H    0.060962
    28  H    0.057867
 Sum of Mulliken charges =   0.00000

 Dipole moment (field-independent basis, Debye):
    X=             -0.1674    Y=             -0.0805    Z=             -0.0318  Tot=              0.1885
 N-N= 3.075932765634D+02 E-N=-4.973558106649D+02  KE=-7.912242120856D+01
 Leave Link  601 at Tue Jul 27 12:14:15 2021, MaxMem=   131072000 cpu:               0.0 elap:               0.0
 (Enter /opt/g16/l9999.exe)
 1\1\GINC-TOTEM\FOpt\RPM3\ZDO\C10H18\JRAMOS\27-Jul-2021\0\\#p opt pm3\\
 Conformer number 030. Energy MM = 27.340 kcal/mol\\0,1\C,2.8621005652,
 1.3300208584,-9.4294422173\H,2.4608286504,0.3674852906,-9.8054161916\H
 ,3.127328751,1.9168066874,-10.3311639146\C,4.0890777423,1.0768460546,-
 8.6067461209\C,5.1470490426,2.1173990534,-8.6765184239\H,5.9836248039,
 1.9030873262,-7.9919567343\H,5.554906963,2.1916139452,-9.6932114427\H,
 4.73007026,3.1031834059,-8.4087279609\C,4.1925287092,-0.0317374468,-7.

 Normal termination of Gaussian 16 at Tue Jul 27 12:14:15 2021.
