 Gaussian 16, Revision A.03,
 Gaussian 16:  ES64L-G16RevA.03 25-Dec-2016

 ----------
 #p opt pm3
 ----------

 -------------------------------------------------
 Conformer number 024. Energy MM = 27.980 kcal/mol
 -------------------------------------------------
 Symbolic Z-matrix:
 Charge =  0 Multiplicity = 1

 SCF Done:  E(RPM3) = -0.179967665050E-01 A.U. after   12 cycles
 SCF Done:  E(RPM3) = -0.221317174328E-01 A.U. after   11 cycles
 SCF Done:  E(RPM3) = -0.239963562652E-01 A.U. after   11 cycles
 SCF Done:  E(RPM3) = -0.245027386990E-01 A.U. after   11 cycles
 SCF Done:  E(RPM3) = -0.249783549481E-01 A.U. after   11 cycles
 SCF Done:  E(RPM3) = -0.251859619577E-01 A.U. after   10 cycles
 SCF Done:  E(RPM3) = -0.253543428851E-01 A.U. after   10 cycles
 SCF Done:  E(RPM3) = -0.254421105766E-01 A.U. after   11 cycles
 SCF Done:  E(RPM3) = -0.254753178130E-01 A.U. after    9 cycles
 SCF Done:  E(RPM3) = -0.255314049240E-01 A.U. after   10 cycles
 SCF Done:  E(RPM3) = -0.256014220021E-01 A.U. after   10 cycles
 SCF Done:  E(RPM3) = -0.256036828388E-01 A.U. after    9 cycles
 SCF Done:  E(RPM3) = -0.256051277373E-01 A.U. after    9 cycles
 SCF Done:  E(RPM3) = -0.256068783555E-01 A.U. after    9 cycles
 SCF Done:  E(RPM3) = -0.256072545002E-01 A.U. after    9 cycles
 SCF Done:  E(RPM3) = -0.256073156840E-01 A.U. after    8 cycles
 SCF Done:  E(RPM3) = -0.256073698708E-01 A.U. after    8 cycles
 SCF Done:  E(RPM3) = -0.256074642896E-01 A.U. after    9 cycles
 SCF Done:  E(RPM3) = -0.256075123422E-01 A.U. after    8 cycles
 SCF Done:  E(RPM3) = -0.256075270624E-01 A.U. after    8 cycles
 Optimization completed.
    -- Stationary point found.

                         Standard orientation:
 ---------------------------------------------------------------------
 Center     Atomic      Atomic             Coordinates (Angstroms)
 Number     Number       Type             X           Y           Z
 ---------------------------------------------------------------------
      1          6           0       -0.870476   -1.287203   -0.670754
      2          1           0       -1.278232   -1.704954   -1.613798
      3          1           0       -0.684598   -2.160961   -0.013254
      4          6           0       -1.930725   -0.415806   -0.068127
      5          6           0       -2.854024   -1.102324    0.872497
      6          1           0       -3.668644   -0.438413    1.205815
      7          1           0       -3.309510   -1.983623    0.402037
      8          1           0       -2.313204   -1.441998    1.766220
      9          6           0       -2.042018    0.879529   -0.391906
     10          1           0       -1.304858    1.314322   -1.087462
     11          6           0       -3.077959    1.797811    0.123719
     12          1           0       -3.794598    1.289012    0.789648
     13          1           0       -2.618729    2.618245    0.690787
     14          1           0       -3.646797    2.241649   -0.703790
     15          6           0        3.305219    0.282695    1.484673
     16          1           0        2.754716   -0.039508    2.378448
     17          1           0        4.237988   -0.296160    1.442666
     18          1           0        3.576921    1.337938    1.625081
     19          6           0        2.521991    0.106056    0.233380
     20          6           0        3.206391    0.494207   -1.026953
     21          1           0        2.609494    1.223303   -1.593313
     22          1           0        4.190720    0.943590   -0.841774
     23          1           0        3.357518   -0.379773   -1.676776
     24          6           0        1.271563   -0.377603    0.259245
     25          1           0        0.806185   -0.646196    1.216667
     26          6           0        0.442000   -0.570530   -0.957967
     27          1           0        0.233376    0.423484   -1.420521
     28          1           0        1.020475   -1.140956   -1.713518
 ---------------------------------------------------------------------

 The electronic state is 1-A.
 Alpha  occ. eigenvalues --   -1.47340  -1.36121  -1.18860  -1.08788  -1.01339
 Alpha  occ. eigenvalues --   -0.95533  -0.86941  -0.79279  -0.66809  -0.64272
 Alpha  occ. eigenvalues --   -0.61098  -0.59509  -0.58566  -0.55125  -0.55013
 Alpha  occ. eigenvalues --   -0.54082  -0.50872  -0.50237  -0.49143  -0.48654
 Alpha  occ. eigenvalues --   -0.48144  -0.47738  -0.46961  -0.46382  -0.44990
 Alpha  occ. eigenvalues --   -0.44736  -0.42404  -0.34398  -0.34264
 Alpha virt. eigenvalues --    0.03951   0.04170   0.12166   0.12520   0.13168
 Alpha virt. eigenvalues --    0.13759   0.14004   0.14290   0.14837   0.15061
 Alpha virt. eigenvalues --    0.15237   0.15812   0.15944   0.16191   0.16208

 Mulliken charges:
               1
     1  C   -0.054683
     2  H    0.053180
     3  H    0.057039
     4  C   -0.126454
     5  C   -0.075317
     6  H    0.049958
     7  H    0.044528
     8  H    0.046158
     9  C   -0.162193
    10  H    0.104992
    11  C   -0.074070
    12  H    0.046808
    13  H    0.044690
    14  H    0.043345
    15  C   -0.063553
    16  H    0.041229
    17  H    0.042933
    18  H    0.043474
    19  C   -0.133377
    20  C   -0.067628
    21  H    0.044012
    22  H    0.042803
    23  H    0.045098
    24  C   -0.156179
    25  H    0.108043
    26  C   -0.066618
    27  H    0.065313
    28  H    0.056469
 Sum of Mulliken charges =  -0.00000

 Dipole moment (field-independent basis, Debye):
    X=              0.0262    Y=             -0.0126    Z=             -0.0687  Tot=              0.0746
 N-N= 3.076359969825D+02 E-N=-4.974653309453D+02  KE=-7.910586858599D+01
 Leave Link  601 at Fri Sep 17 19:56:09 2021, MaxMem=   131072000 cpu:               0.0 elap:               0.1
 (Enter /opt/g16/l9999.exe)
 1\1\GINC-TOTEM\FOpt\RPM3\ZDO\C10H18\JRAMOS\17-Sep-2021\0\\#p opt pm3\\
 Conformer number 024. Energy MM = 27.980 kcal/mol\\0,1\C,2.2955814709,
 1.4624882664,-9.0805960096\H,1.9359409215,0.480282017,-9.4494354256\H,
 2.2868721138,2.134004532,-9.9633753744\C,3.7028656681,1.275676699,-8.5
 996870237\C,4.756083853,1.5022817772,-9.6233782012\H,5.7601252874,1.25
 52094036,-9.2408319718\H,4.5752153751,0.8877265016,-10.5150600658\H,4.
 768503092,2.5543657832,-9.9389257252\C,3.9703773128,0.899281091,-7.341

 Normal termination of Gaussian 16 at Fri Sep 17 19:56:09 2021.
