 Gaussian 16, Revision A.03,
 Gaussian 16:  ES64L-G16RevA.03 25-Dec-2016

 ----------
 #p opt pm3
 ----------

 -------------------------------------------------
 Conformer number 012. Energy MM = 26.413 kcal/mol
 -------------------------------------------------
 Symbolic Z-matrix:
 Charge =  0 Multiplicity = 1

 SCF Done:  E(RPM3) = -0.194517552553E-01 A.U. after   12 cycles
 SCF Done:  E(RPM3) = -0.232377989532E-01 A.U. after   11 cycles
 SCF Done:  E(RPM3) = -0.246323934754E-01 A.U. after   12 cycles
 SCF Done:  E(RPM3) = -0.252864241214E-01 A.U. after   11 cycles
 SCF Done:  E(RPM3) = -0.258890329274E-01 A.U. after   10 cycles
 SCF Done:  E(RPM3) = -0.262847933240E-01 A.U. after   11 cycles
 SCF Done:  E(RPM3) = -0.266440186424E-01 A.U. after   11 cycles
 SCF Done:  E(RPM3) = -0.269000714190E-01 A.U. after   12 cycles
 SCF Done:  E(RPM3) = -0.270947891632E-01 A.U. after   12 cycles
 SCF Done:  E(RPM3) = -0.272369199005E-01 A.U. after   11 cycles
 SCF Done:  E(RPM3) = -0.274811614819E-01 A.U. after   11 cycles
 SCF Done:  E(RPM3) = -0.275527426147E-01 A.U. after   11 cycles
 SCF Done:  E(RPM3) = -0.275496573031E-01 A.U. after    9 cycles
 SCF Done:  E(RPM3) = -0.275565632817E-01 A.U. after   10 cycles
 SCF Done:  E(RPM3) = -0.275588856779E-01 A.U. after    9 cycles
 SCF Done:  E(RPM3) = -0.275617595480E-01 A.U. after    9 cycles
 SCF Done:  E(RPM3) = -0.275637081023E-01 A.U. after    9 cycles
 SCF Done:  E(RPM3) = -0.275640397138E-01 A.U. after    9 cycles
 SCF Done:  E(RPM3) = -0.275641708135E-01 A.U. after    8 cycles
 SCF Done:  E(RPM3) = -0.275641866687E-01 A.U. after    8 cycles
 Optimization completed.
    -- Stationary point found.

                         Standard orientation:
 ---------------------------------------------------------------------
 Center     Atomic      Atomic             Coordinates (Angstroms)
 Number     Number       Type             X           Y           Z
 ---------------------------------------------------------------------
      1          6           0       -0.721278   -1.014121    0.903195
      2          1           0       -1.024417   -2.024736    1.243128
      3          1           0       -0.468577   -0.448412    1.821781
      4          6           0       -1.881101   -0.391911    0.188291
      5          6           0       -2.382480   -1.149018   -0.988271
      6          1           0       -3.072655   -0.547816   -1.601467
      7          1           0       -1.534737   -1.462906   -1.620771
      8          1           0       -2.916723   -2.053396   -0.669113
      9          6           0       -2.409821    0.768245    0.599721
     10          1           0       -1.991271    1.280872    1.475503
     11          6           0       -3.554478    1.441349   -0.051085
     12          1           0       -3.845700    0.949741   -0.994434
     13          1           0       -4.430328    1.439195    0.611229
     14          1           0       -3.311941    2.487258   -0.279649
     15          6           0        3.146219    1.684232   -0.282551
     16          1           0        2.404522    2.470603   -0.475276
     17          1           0        3.709765    1.972795    0.615312
     18          1           0        3.849508    1.677145   -1.126366
     19          6           0        2.527713    0.342819   -0.104945
     20          6           0        3.484094   -0.772775    0.116186
     21          1           0        2.968973   -1.704244    0.403756
     22          1           0        4.057877   -0.976855   -0.797668
     23          1           0        4.199708   -0.526018    0.911492
     24          6           0        1.198516    0.181043   -0.149530
     25          1           0        0.540371    1.045905   -0.310587
     26          6           0        0.504655   -1.123926    0.002258
     27          1           0        0.189045   -1.481896   -1.005537
     28          1           0        1.204350   -1.892871    0.399049
 ---------------------------------------------------------------------

 The electronic state is 1-A.
 Alpha  occ. eigenvalues --   -1.47598  -1.36119  -1.19571  -1.06361  -1.01314
 Alpha  occ. eigenvalues --   -0.96850  -0.88520  -0.77322  -0.66199  -0.65209
 Alpha  occ. eigenvalues --   -0.62091  -0.59767  -0.57993  -0.55803  -0.55139
 Alpha  occ. eigenvalues --   -0.53746  -0.51011  -0.50802  -0.48832  -0.48288
 Alpha  occ. eigenvalues --   -0.47909  -0.47407  -0.47191  -0.46719  -0.44748
 Alpha  occ. eigenvalues --   -0.43413  -0.42527  -0.35133  -0.34029
 Alpha virt. eigenvalues --    0.03678   0.04315   0.12323   0.12473   0.13341
 Alpha virt. eigenvalues --    0.13717   0.14089   0.14154   0.14336   0.15018
 Alpha virt. eigenvalues --    0.15702   0.15830   0.16094   0.16290   0.16349

 Mulliken charges:
               1
     1  C   -0.052595
     2  H    0.051814
     3  H    0.057257
     4  C   -0.127790
     5  C   -0.083743
     6  H    0.051639
     7  H    0.052329
     8  H    0.046978
     9  C   -0.152137
    10  H    0.099645
    11  C   -0.079138
    12  H    0.047720
    13  H    0.045210
    14  H    0.043373
    15  C   -0.067438
    16  H    0.041878
    17  H    0.043311
    18  H    0.042738
    19  C   -0.127780
    20  C   -0.074964
    21  H    0.048403
    22  H    0.045782
    23  H    0.044810
    24  C   -0.155479
    25  H    0.107794
    26  C   -0.074428
    27  H    0.064730
    28  H    0.060082
 Sum of Mulliken charges =  -0.00000

 Dipole moment (field-independent basis, Debye):
    X=              0.0827    Y=             -0.1903    Z=             -0.1654  Tot=              0.2653
 N-N= 3.076824489113D+02 E-N=-4.975433366645D+02  KE=-7.912441027884D+01
 Leave Link  601 at Fri Sep 17 19:55:44 2021, MaxMem=   131072000 cpu:               0.0 elap:               0.1
 (Enter /opt/g16/l9999.exe)
 1\1\GINC-TOTEM\FOpt\RPM3\ZDO\C10H18\JRAMOS\17-Sep-2021\0\\#p opt pm3\\
 Conformer number 012. Energy MM = 26.413 kcal/mol\\0,1\C,2.5117085497,
 1.3656131795,-9.2602082994\H,2.1365392432,0.3706077756,-9.5732610899\H
 ,2.5954862593,1.9639860782,-10.1889788999\C,3.8506908081,1.1805996943,
 -8.6149792784\C,3.8667176991,0.2822903161,-7.4310566361\H,4.8107618207
 ,0.3591420704,-6.8683218582\H,3.0337828427,0.5390844035,-6.7546505466\
 H,3.7412741297,-0.7647176069,-7.7363693416\C,4.9420460207,1.7953320586

 Normal termination of Gaussian 16 at Fri Sep 17 19:55:44 2021.
