 Gaussian 16, Revision A.03,
 Gaussian 16:  ES64L-G16RevA.03 25-Dec-2016

 ----------
 #p opt pm3
 ----------

 -------------------------------------------------
 Conformer number 028. Energy MM = 26.187 kcal/mol
 -------------------------------------------------
 Symbolic Z-matrix:
 Charge =  0 Multiplicity = 1

 SCF Done:  E(RPM3) = -0.190264364158E-01 A.U. after   12 cycles
 SCF Done:  E(RPM3) = -0.225656584296E-01 A.U. after   11 cycles
 SCF Done:  E(RPM3) = -0.241222896184E-01 A.U. after   12 cycles
 SCF Done:  E(RPM3) = -0.239686120389E-01 A.U. after   11 cycles
 SCF Done:  E(RPM3) = -0.247045152927E-01 A.U. after   11 cycles
 SCF Done:  E(RPM3) = -0.250456552745E-01 A.U. after   10 cycles
 SCF Done:  E(RPM3) = -0.253197109989E-01 A.U. after   10 cycles
 SCF Done:  E(RPM3) = -0.251340886087E-01 A.U. after   12 cycles
 SCF Done:  E(RPM3) = -0.252077356384E-01 A.U. after   11 cycles
 SCF Done:  E(RPM3) = -0.255671699306E-01 A.U. after    9 cycles
 SCF Done:  E(RPM3) = -0.274556941416E-01 A.U. after   10 cycles
 SCF Done:  E(RPM3) = -0.274638068877E-01 A.U. after   10 cycles
 SCF Done:  E(RPM3) = -0.274370374996E-01 A.U. after   10 cycles
 SCF Done:  E(RPM3) = -0.274567007713E-01 A.U. after   10 cycles
 SCF Done:  E(RPM3) = -0.274736522133E-01 A.U. after   10 cycles
 SCF Done:  E(RPM3) = -0.274706636076E-01 A.U. after   10 cycles
 SCF Done:  E(RPM3) = -0.274798501481E-01 A.U. after   10 cycles
 SCF Done:  E(RPM3) = -0.274828241668E-01 A.U. after   10 cycles
 SCF Done:  E(RPM3) = -0.274830460315E-01 A.U. after    8 cycles
 SCF Done:  E(RPM3) = -0.274831217071E-01 A.U. after    8 cycles
 Optimization completed.
    -- Stationary point found.

                         Standard orientation:
 ---------------------------------------------------------------------
 Center     Atomic      Atomic             Coordinates (Angstroms)
 Number     Number       Type             X           Y           Z
 ---------------------------------------------------------------------
      1          6           0        0.897520   -1.312216   -0.968614
      2          1           0        1.412829   -2.293967   -0.977090
      3          1           0        0.878499   -0.972865   -2.024000
      4          6           0        1.697886   -0.374920   -0.117641
      5          6           0        1.876343   -0.791586    1.297905
      6          1           0        2.283755    0.022335    1.918644
      7          1           0        0.906909   -1.103267    1.723693
      8          1           0        2.563700   -1.644733    1.367961
      9          6           0        2.211193    0.754156   -0.624003
     10          1           0        2.042174    1.008099   -1.678413
     11          6           0        3.016228    1.725994    0.146874
     12          1           0        3.049421    1.481147    1.221683
     13          1           0        4.049988    1.749832   -0.222643
     14          1           0        2.603029    2.738119    0.047188
     15          6           0       -3.117576    1.379451   -0.456949
     16          1           0       -3.029078    1.560427   -1.536331
     17          1           0       -4.171428    1.154871   -0.243285
     18          1           0       -2.868179    2.317470    0.057776
     19          6           0       -2.239804    0.274287    0.014323
     20          6           0       -2.357217   -0.054845    1.458722
     21          1           0       -1.573527   -0.758928    1.785592
     22          1           0       -2.272214    0.849473    2.075604
     23          1           0       -3.331000   -0.515117    1.672818
     24          6           0       -1.414218   -0.361897   -0.827627
     25          1           0       -1.370521   -0.060701   -1.882917
     26          6           0       -0.523613   -1.488162   -0.444287
     27          1           0       -0.493992   -1.610516    0.668023
     28          1           0       -0.960825   -2.423254   -0.846512
 ---------------------------------------------------------------------

 The electronic state is 1-A.
 Alpha  occ. eigenvalues --   -1.47633  -1.35658  -1.19647  -1.06538  -1.01662
 Alpha  occ. eigenvalues --   -0.96577  -0.88345  -0.77245  -0.66513  -0.65097
 Alpha  occ. eigenvalues --   -0.62185  -0.58700  -0.57770  -0.56403  -0.55190
 Alpha  occ. eigenvalues --   -0.54161  -0.51516  -0.49658  -0.49009  -0.48240
 Alpha  occ. eigenvalues --   -0.47891  -0.47546  -0.46854  -0.46280  -0.44980
 Alpha  occ. eigenvalues --   -0.43544  -0.42431  -0.34832  -0.34139
 Alpha virt. eigenvalues --    0.03898   0.04305   0.12265   0.12679   0.13213
 Alpha virt. eigenvalues --    0.13681   0.13849   0.14292   0.14735   0.15305
 Alpha virt. eigenvalues --    0.15526   0.15789   0.15974   0.16205   0.16457

 Mulliken charges:
               1
     1  C   -0.050101
     2  H    0.050850
     3  H    0.054507
     4  C   -0.126003
     5  C   -0.083834
     6  H    0.051719
     7  H    0.051684
     8  H    0.046163
     9  C   -0.149737
    10  H    0.098427
    11  C   -0.078716
    12  H    0.047277
    13  H    0.044281
    14  H    0.043708
    15  C   -0.067705
    16  H    0.041253
    17  H    0.042470
    18  H    0.044154
    19  C   -0.125098
    20  C   -0.075478
    21  H    0.048816
    22  H    0.045458
    23  H    0.045341
    24  C   -0.150355
    25  H    0.101089
    26  C   -0.075003
    27  H    0.069634
    28  H    0.055197
 Sum of Mulliken charges =   0.00000

 Dipole moment (field-independent basis, Debye):
    X=             -0.0784    Y=             -0.0517    Z=              0.3662  Tot=              0.3781
 N-N= 3.125620733727D+02 E-N=-5.073420368692D+02  KE=-7.911217224095D+01
 Leave Link  601 at Tue Jul 27 12:14:33 2021, MaxMem=   131072000 cpu:               0.0 elap:               0.0
 (Enter /opt/g16/l9999.exe)
 1\1\GINC-TOTEM\FOpt\RPM3\ZDO\C10H18\JRAMOS\27-Jul-2021\0\\#p opt pm3\\
 Conformer number 028. Energy MM = 26.187 kcal/mol\\0,1\C,2.2893767595,
 1.3839487857,-8.9813488482\H,1.8854259371,0.4439368916,-9.4087272511\H
 ,2.1424694054,2.157381439,-9.7621044906\C,3.7454263487,1.1771444011,-8
 .6977727409\C,4.0609452379,0.0856407125,-7.7394951374\H,5.1120944841,0
 .1169212602,-7.4110490846\H,3.4145055723,0.16818207,-6.8486826152\H,3.
 8799489406,-0.8962807227,-8.1958912068\C,4.6805710326,1.9355796927,-9.

 Normal termination of Gaussian 16 at Tue Jul 27 12:14:34 2021.
