 Gaussian 16, Revision A.03,
 Gaussian 16:  ES64L-G16RevA.03 25-Dec-2016

 ----------
 #p opt pm3
 ----------

 -------------------------------------------------
 Conformer number 002. Energy MM = 25.192 kcal/mol
 -------------------------------------------------
 Symbolic Z-matrix:
 Charge =  0 Multiplicity = 1

 SCF Done:  E(RPM3) = -0.216006255909E-01 A.U. after   12 cycles
 SCF Done:  E(RPM3) = -0.242357486345E-01 A.U. after   10 cycles
 SCF Done:  E(RPM3) = -0.253070948872E-01 A.U. after   10 cycles
 SCF Done:  E(RPM3) = -0.248545396701E-01 A.U. after   11 cycles
 SCF Done:  E(RPM3) = -0.257762034167E-01 A.U. after   11 cycles
 SCF Done:  E(RPM3) = -0.260638907857E-01 A.U. after   10 cycles
 SCF Done:  E(RPM3) = -0.262299412296E-01 A.U. after   10 cycles
 SCF Done:  E(RPM3) = -0.262596589166E-01 A.U. after   10 cycles
 SCF Done:  E(RPM3) = -0.262712410122E-01 A.U. after   10 cycles
 SCF Done:  E(RPM3) = -0.262844841718E-01 A.U. after   10 cycles
 SCF Done:  E(RPM3) = -0.282167699318E-01 A.U. after   11 cycles
 SCF Done:  E(RPM3) = -0.283145814781E-01 A.U. after   11 cycles
 SCF Done:  E(RPM3) = -0.283295855302E-01 A.U. after   10 cycles
 SCF Done:  E(RPM3) = -0.283395064057E-01 A.U. after   10 cycles
 SCF Done:  E(RPM3) = -0.283460218774E-01 A.U. after   10 cycles
 SCF Done:  E(RPM3) = -0.283499861031E-01 A.U. after    9 cycles
 SCF Done:  E(RPM3) = -0.283518316090E-01 A.U. after    9 cycles
 SCF Done:  E(RPM3) = -0.283524666015E-01 A.U. after    9 cycles
 SCF Done:  E(RPM3) = -0.283527966195E-01 A.U. after    9 cycles
 SCF Done:  E(RPM3) = -0.283529149541E-01 A.U. after    8 cycles
 Optimization completed.
    -- Stationary point found.

                         Standard orientation:
 ---------------------------------------------------------------------
 Center     Atomic      Atomic             Coordinates (Angstroms)
 Number     Number       Type             X           Y           Z
 ---------------------------------------------------------------------
      1          6           0        0.637796   -0.701232   -0.641221
      2          1           0        0.576578   -1.783077   -0.876727
      3          1           0        0.405657   -0.175944   -1.589174
      4          6           0        2.021779   -0.364060   -0.178597
      5          6           0        2.700755   -1.400072    0.641541
      6          1           0        3.686757   -1.060631    0.999170
      7          1           0        2.095324   -1.660522    1.520549
      8          1           0        2.854426   -2.317878    0.058231
      9          6           0        2.584322    0.808204   -0.502626
     10          1           0        2.026514    1.528203   -1.115548
     11          6           0        3.939875    1.233662   -0.093244
     12          1           0        4.438222    0.487850    0.548051
     13          1           0        4.575661    1.395175   -0.973785
     14          1           0        3.896657    2.178435    0.464392
     15          6           0       -4.173510   -0.340625   -0.404573
     16          1           0       -4.176902   -1.383721   -0.747511
     17          1           0       -4.900755   -0.258276    0.414624
     18          1           0       -4.537125    0.282046   -1.233454
     19          6           0       -2.828509    0.113736    0.041144
     20          6           0       -2.768772    1.508027    0.551582
     21          1           0       -1.734027    1.827136    0.758753
     22          1           0       -3.196937    2.210186   -0.175938
     23          1           0       -3.340927    1.603234    1.484089
     24          6           0       -1.766201   -0.700193   -0.021919
     25          1           0       -1.879948   -1.719829   -0.413783
     26          6           0       -0.394796   -0.332266    0.417518
     27          1           0       -0.330767    0.754664    0.651300
     28          1           0       -0.174850   -0.858138    1.369134
 ---------------------------------------------------------------------

 The electronic state is 1-A.
 Alpha  occ. eigenvalues --   -1.46927  -1.36661  -1.19460  -1.07397  -1.01378
 Alpha  occ. eigenvalues --   -0.96736  -0.86802  -0.78665  -0.66805  -0.65008
 Alpha  occ. eigenvalues --   -0.60906  -0.60536  -0.57606  -0.55866  -0.55182
 Alpha  occ. eigenvalues --   -0.53441  -0.51646  -0.50763  -0.48828  -0.48363
 Alpha  occ. eigenvalues --   -0.48184  -0.47537  -0.47524  -0.46603  -0.45247
 Alpha  occ. eigenvalues --   -0.43385  -0.42155  -0.35282  -0.34180
 Alpha virt. eigenvalues --    0.03538   0.04202   0.12019   0.12734   0.13368
 Alpha virt. eigenvalues --    0.13535   0.13901   0.14187   0.14674   0.14932
 Alpha virt. eigenvalues --    0.15598   0.15727   0.15937   0.16327   0.16350

 Mulliken charges:
               1
     1  C   -0.053954
     2  H    0.053399
     3  H    0.055211
     4  C   -0.128031
     5  C   -0.075603
     6  H    0.049541
     7  H    0.046969
     8  H    0.046420
     9  C   -0.150757
    10  H    0.098851
    11  C   -0.078903
    12  H    0.047819
    13  H    0.044862
    14  H    0.044027
    15  C   -0.068728
    16  H    0.041519
    17  H    0.043518
    18  H    0.044040
    19  C   -0.122617
    20  C   -0.076719
    21  H    0.050690
    22  H    0.045399
    23  H    0.046209
    24  C   -0.157432
    25  H    0.101174
    26  C   -0.068535
    27  H    0.063602
    28  H    0.058032
 Sum of Mulliken charges =  -0.00000

 Dipole moment (field-independent basis, Debye):
    X=             -0.0252    Y=              0.1013    Z=              0.1833  Tot=              0.2109
 N-N= 3.036343160579D+02 E-N=-4.894349708181D+02  KE=-7.910892488941D+01
 Leave Link  601 at Tue Jul 27 12:13:46 2021, MaxMem=   131072000 cpu:               0.0 elap:               0.0
 (Enter /opt/g16/l9999.exe)
 1\1\GINC-TOTEM\FOpt\RPM3\ZDO\C10H18\JRAMOS\27-Jul-2021\0\\#p opt pm3\\
 Conformer number 002. Energy MM = 25.192 kcal/mol\\0,1\C,2.2988420602,
 1.1273948896,-9.0932766249\H,1.9605992385,0.0739474032,-9.1670335271\H
 ,2.242867306,1.5315541785,-10.1237870931\C,3.7080317167,1.1696491993,-
 8.5877913862\C,4.0633713707,0.1434461851,-7.5740857286\H,5.0927477606,
 0.2726697817,-7.2012540099\H,3.3842469721,0.1949982657,-6.7120147677\H
 ,3.98621095,-0.8659849049,-7.9999112202\C,4.5703669293,2.0887602653,-9

 Normal termination of Gaussian 16 at Tue Jul 27 12:13:46 2021.
