 Gaussian 16, Revision A.03,
 Gaussian 16:  ES64L-G16RevA.03 25-Dec-2016

 ----------
 #p opt pm3
 ----------

 -------------------------------------------------
 Conformer number 005. Energy MM = 25.430 kcal/mol
 -------------------------------------------------
 Symbolic Z-matrix:
 Charge =  0 Multiplicity = 1

 SCF Done:  E(RPM3) = -0.210295475022E-01 A.U. after   12 cycles
 SCF Done:  E(RPM3) = -0.243416431448E-01 A.U. after   10 cycles
 SCF Done:  E(RPM3) = -0.258416223339E-01 A.U. after   10 cycles
 SCF Done:  E(RPM3) = -0.262622541954E-01 A.U. after   10 cycles
 SCF Done:  E(RPM3) = -0.265650448060E-01 A.U. after   11 cycles
 SCF Done:  E(RPM3) = -0.270332081188E-01 A.U. after   11 cycles
 SCF Done:  E(RPM3) = -0.274667469603E-01 A.U. after   11 cycles
 SCF Done:  E(RPM3) = -0.277826844991E-01 A.U. after   11 cycles
 SCF Done:  E(RPM3) = -0.279507189732E-01 A.U. after   10 cycles
 SCF Done:  E(RPM3) = -0.281385228541E-01 A.U. after   11 cycles
 SCF Done:  E(RPM3) = -0.283323191849E-01 A.U. after   10 cycles
 SCF Done:  E(RPM3) = -0.283371687796E-01 A.U. after    9 cycles
 SCF Done:  E(RPM3) = -0.283456743328E-01 A.U. after   10 cycles
 SCF Done:  E(RPM3) = -0.283499627380E-01 A.U. after   10 cycles
 SCF Done:  E(RPM3) = -0.283507292772E-01 A.U. after    9 cycles
 SCF Done:  E(RPM3) = -0.283520621271E-01 A.U. after    9 cycles
 SCF Done:  E(RPM3) = -0.283525953276E-01 A.U. after    9 cycles
 SCF Done:  E(RPM3) = -0.283527843795E-01 A.U. after    9 cycles
 SCF Done:  E(RPM3) = -0.283529806306E-01 A.U. after    9 cycles
 SCF Done:  E(RPM3) = -0.283529948447E-01 A.U. after    8 cycles
 Optimization completed.
    -- Stationary point found.

                         Standard orientation:
 ---------------------------------------------------------------------
 Center     Atomic      Atomic             Coordinates (Angstroms)
 Number     Number       Type             X           Y           Z
 ---------------------------------------------------------------------
      1          6           0       -0.637170   -0.699794   -0.641512
      2          1           0       -0.404352   -0.172283   -1.588062
      3          1           0       -0.575844   -1.781085   -0.879523
      4          6           0       -2.021452   -0.363687   -0.179032
      5          6           0       -2.700582   -1.401112    0.639178
      6          1           0       -3.687424   -1.062973    0.995731
      7          1           0       -2.852536   -2.318545    0.054833
      8          1           0       -2.096152   -1.661775    1.518813
      9          6           0       -2.584160    0.808899   -0.501598
     10          1           0       -2.026272    1.529966   -1.113191
     11          6           0       -3.939992    1.233444   -0.092213
     12          1           0       -4.439189    0.485759    0.546233
     13          1           0       -3.896990    2.176397    0.468530
     14          1           0       -4.574862    1.398026   -0.972834
     15          6           0        4.173355   -0.340488   -0.404248
     16          1           0        4.176185   -1.382489   -0.750507
     17          1           0        4.538751    0.284452   -1.230629
     18          1           0        4.899541   -0.261495    0.416223
     19          6           0        2.828229    0.113739    0.041234
     20          6           0        2.768032    1.508547    0.550196
     21          1           0        1.733520    1.826337    0.760518
     22          1           0        3.343243    1.605821    1.480611
     23          1           0        3.192599    2.210449   -0.179673
     24          6           0        1.766340   -0.700817   -0.020651
     25          1           0        1.880533   -1.720782   -0.411539
     26          6           0        0.394787   -0.333347    0.418752
     27          1           0        0.174060   -0.861188    1.369077
     28          1           0        0.330876    0.753094    0.654752
 ---------------------------------------------------------------------

 The electronic state is 1-A.
 Alpha  occ. eigenvalues --   -1.46927  -1.36660  -1.19461  -1.07396  -1.01377
 Alpha  occ. eigenvalues --   -0.96738  -0.86802  -0.78665  -0.66803  -0.65010
 Alpha  occ. eigenvalues --   -0.60909  -0.60538  -0.57604  -0.55868  -0.55184
 Alpha  occ. eigenvalues --   -0.53441  -0.51641  -0.50763  -0.48828  -0.48361
 Alpha  occ. eigenvalues --   -0.48184  -0.47536  -0.47525  -0.46603  -0.45248
 Alpha  occ. eigenvalues --   -0.43384  -0.42152  -0.35284  -0.34180
 Alpha virt. eigenvalues --    0.03537   0.04203   0.12019   0.12734   0.13368
 Alpha virt. eigenvalues --    0.13535   0.13901   0.14187   0.14674   0.14932
 Alpha virt. eigenvalues --    0.15597   0.15728   0.15937   0.16327   0.16350

 Mulliken charges:
               1
     1  C   -0.053947
     2  H    0.055210
     3  H    0.053404
     4  C   -0.128022
     5  C   -0.075610
     6  H    0.049542
     7  H    0.046414
     8  H    0.046974
     9  C   -0.150754
    10  H    0.098845
    11  C   -0.078907
    12  H    0.047820
    13  H    0.044035
    14  H    0.044854
    15  C   -0.068750
    16  H    0.041520
    17  H    0.044028
    18  H    0.043534
    19  C   -0.122571
    20  C   -0.076726
    21  H    0.050692
    22  H    0.046193
    23  H    0.045419
    24  C   -0.157426
    25  H    0.101153
    26  C   -0.068533
    27  H    0.058018
    28  H    0.063590
 Sum of Mulliken charges =   0.00000

 Dipole moment (field-independent basis, Debye):
    X=              0.0256    Y=              0.1012    Z=              0.1831  Tot=              0.2108
 N-N= 3.036392464656D+02 E-N=-4.894448664752D+02  KE=-7.910890321399D+01
 Leave Link  601 at Fri Sep 17 19:55:42 2021, MaxMem=   131072000 cpu:               0.0 elap:               0.1
 (Enter /opt/g16/l9999.exe)
 1\1\GINC-TOTEM\FOpt\RPM3\ZDO\C10H18\JRAMOS\17-Sep-2021\0\\#p opt pm3\\
 Conformer number 005. Energy MM = 25.430 kcal/mol\\0,1\C,2.2644013905,
 1.4819617958,-9.0852415718\H,2.0670801073,0.6618827407,-9.8042443184\H
 ,2.0501098967,2.4200588203,-9.6362880584\C,3.6982092728,1.4683281798,-
 8.652690404\C,4.2644604112,2.7802285185,-8.2462262881\H,5.300805162,2.
 6860026891,-7.8823079048\H,4.2696496894,3.4799646789,-9.0927338199\H,3
 .6656336679,3.2318074933,-7.4434052384\C,4.3992033998,0.3263132453,-8.

 Normal termination of Gaussian 16 at Fri Sep 17 19:55:42 2021.
