 Gaussian 16, Revision A.03,
 Gaussian 16:  ES64L-G16RevA.03 25-Dec-2016

 ----------
 #p opt pm3
 ----------

 -------------------------------------------------
 Conformer number 013. Energy MM = 27.094 kcal/mol
 -------------------------------------------------
 Symbolic Z-matrix:
 Charge =  0 Multiplicity = 1

 SCF Done:  E(RPM3) = -0.185955370663E-01 A.U. after   12 cycles
 SCF Done:  E(RPM3) = -0.223217207905E-01 A.U. after   11 cycles
 SCF Done:  E(RPM3) = -0.239907722055E-01 A.U. after   11 cycles
 SCF Done:  E(RPM3) = -0.239058425165E-01 A.U. after   12 cycles
 SCF Done:  E(RPM3) = -0.252620464025E-01 A.U. after   12 cycles
 SCF Done:  E(RPM3) = -0.259666162841E-01 A.U. after   10 cycles
 SCF Done:  E(RPM3) = -0.265213961951E-01 A.U. after   11 cycles
 SCF Done:  E(RPM3) = -0.267277869663E-01 A.U. after   10 cycles
 SCF Done:  E(RPM3) = -0.268274640422E-01 A.U. after   10 cycles
 SCF Done:  E(RPM3) = -0.268712682836E-01 A.U. after   10 cycles
 SCF Done:  E(RPM3) = -0.269660030353E-01 A.U. after    8 cycles
 SCF Done:  E(RPM3) = -0.269676447726E-01 A.U. after    9 cycles
 SCF Done:  E(RPM3) = -0.269684817402E-01 A.U. after    9 cycles
 SCF Done:  E(RPM3) = -0.269687851861E-01 A.U. after    9 cycles
 SCF Done:  E(RPM3) = -0.269691354998E-01 A.U. after    8 cycles
 SCF Done:  E(RPM3) = -0.269694700869E-01 A.U. after    9 cycles
 SCF Done:  E(RPM3) = -0.269695884496E-01 A.U. after    8 cycles
 SCF Done:  E(RPM3) = -0.269696555661E-01 A.U. after    8 cycles
 SCF Done:  E(RPM3) = -0.269696966249E-01 A.U. after    8 cycles
 SCF Done:  E(RPM3) = -0.269697067779E-01 A.U. after    8 cycles
 Optimization completed.
    -- Stationary point found.

                         Standard orientation:
 ---------------------------------------------------------------------
 Center     Atomic      Atomic             Coordinates (Angstroms)
 Number     Number       Type             X           Y           Z
 ---------------------------------------------------------------------
      1          6           0       -0.902254    1.590236   -0.390838
      2          1           0       -0.735736    2.366810    0.382827
      3          1           0       -1.512861    2.077836   -1.177264
      4          6           0       -1.661729    0.440880    0.198088
      5          6           0       -1.446709    0.195770    1.646892
      6          1           0       -1.960051   -0.716784    1.991220
      7          1           0       -0.373926    0.085516    1.861323
      8          1           0       -1.823379    1.037426    2.243400
      9          6           0       -2.473719   -0.303157   -0.565470
     10          1           0       -2.586098   -0.065696   -1.631245
     11          6           0       -3.259033   -1.458561   -0.081510
     12          1           0       -3.068111   -1.678841    0.981952
     13          1           0       -4.334553   -1.269350   -0.195900
     14          1           0       -3.015994   -2.360480   -0.658439
     15          6           0        3.276392   -0.475084    1.054074
     16          1           0        3.281874    0.311378    1.820333
     17          1           0        3.085498   -1.430699    1.561430
     18          1           0        4.285348   -0.525356    0.622632
     19          6           0        2.263227   -0.234926   -0.008725
     20          6           0        2.236255   -1.244208   -1.098907
     21          1           0        1.371642   -1.102597   -1.768293
     22          1           0        3.146610   -1.178185   -1.709553
     23          1           0        2.180865   -2.261950   -0.690674
     24          6           0        1.447039    0.826887    0.038623
     25          1           0        1.515184    1.532593    0.877785
     26          6           0        0.427336    1.150458   -0.993718
     27          1           0        0.833278    1.964938   -1.627212
     28          1           0        0.269585    0.283669   -1.675377
 ---------------------------------------------------------------------

 The electronic state is 1-A.
 Alpha  occ. eigenvalues --   -1.47441  -1.35608  -1.19416  -1.07169  -1.01162
 Alpha  occ. eigenvalues --   -0.97429  -0.86835  -0.78397  -0.66245  -0.65281
 Alpha  occ. eigenvalues --   -0.61384  -0.59672  -0.57329  -0.55739  -0.55702
 Alpha  occ. eigenvalues --   -0.54003  -0.51536  -0.49893  -0.48433  -0.48281
 Alpha  occ. eigenvalues --   -0.47919  -0.47680  -0.47182  -0.46210  -0.45530
 Alpha  occ. eigenvalues --   -0.43307  -0.42511  -0.35251  -0.33836
 Alpha virt. eigenvalues --    0.03726   0.04300   0.12289   0.12609   0.13454
 Alpha virt. eigenvalues --    0.13680   0.13932   0.14075   0.14927   0.15276
 Alpha virt. eigenvalues --    0.15455   0.15704   0.16008   0.16134   0.16422

 Mulliken charges:
               1
     1  C   -0.052147
     2  H    0.054103
     3  H    0.050322
     4  C   -0.119850
     5  C   -0.081593
     6  H    0.049519
     7  H    0.054697
     8  H    0.045321
     9  C   -0.156994
    10  H    0.097284
    11  C   -0.077330
    12  H    0.048057
    13  H    0.043870
    14  H    0.043166
    15  C   -0.068267
    16  H    0.040902
    17  H    0.043936
    18  H    0.043332
    19  C   -0.124970
    20  C   -0.075951
    21  H    0.050832
    22  H    0.045518
    23  H    0.045519
    24  C   -0.154881
    25  H    0.101937
    26  C   -0.065238
    27  H    0.053744
    28  H    0.065162
 Sum of Mulliken charges =  -0.00000

 Dipole moment (field-independent basis, Debye):
    X=              0.1873    Y=             -0.1957    Z=              0.0387  Tot=              0.2737
 N-N= 3.126154110815D+02 E-N=-5.074522726237D+02  KE=-7.910489693850D+01
 Leave Link  601 at Tue Jul 27 12:14:00 2021, MaxMem=   131072000 cpu:               0.0 elap:               0.0
 (Enter /opt/g16/l9999.exe)
 1\1\GINC-TOTEM\FOpt\RPM3\ZDO\C10H18\JRAMOS\27-Jul-2021\0\\#p opt pm3\\
 Conformer number 013. Energy MM = 27.094 kcal/mol\\0,1\C,2.1771028375,
 1.0887602056,-8.9055108673\H,1.9546244542,0.0127194271,-9.0538086962\H
 ,1.9496042691,1.5773433389,-9.8743201467\C,3.6282442231,1.267228576,-8
 .5784134577\C,4.2761586429,0.136973245,-7.8656179017\H,5.3127425372,0.
 3730208266,-7.5747377365\H,3.714348727,-0.1131080482,-6.9541195542\H,4
 .3019963811,-0.7589140167,-8.500287033\C,4.2709143854,2.3928739381,-8.

 Normal termination of Gaussian 16 at Tue Jul 27 12:14:00 2021.
