 Gaussian 16, Revision A.03,
 Gaussian 16:  ES64L-G16RevA.03 25-Dec-2016

 ----------
 #p opt pm3
 ----------

 -------------------------------------------------
 Conformer number 036. Energy MM = 25.902 kcal/mol
 -------------------------------------------------
 Symbolic Z-matrix:
 Charge =  0 Multiplicity = 1

 SCF Done:  E(RPM3) = -0.183537477857E-01 A.U. after   12 cycles
 SCF Done:  E(RPM3) = -0.238914496977E-01 A.U. after   11 cycles
 SCF Done:  E(RPM3) = -0.244234043845E-01 A.U. after   12 cycles
 SCF Done:  E(RPM3) = -0.252677005271E-01 A.U. after   11 cycles
 SCF Done:  E(RPM3) = -0.257826534353E-01 A.U. after   11 cycles
 SCF Done:  E(RPM3) = -0.264528753357E-01 A.U. after   12 cycles
 SCF Done:  E(RPM3) = -0.267422716609E-01 A.U. after   11 cycles
 SCF Done:  E(RPM3) = -0.267955322169E-01 A.U. after   11 cycles
 SCF Done:  E(RPM3) = -0.268485290703E-01 A.U. after   11 cycles
 SCF Done:  E(RPM3) = -0.269008476584E-01 A.U. after   11 cycles
 SCF Done:  E(RPM3) = -0.272905313443E-01 A.U. after   11 cycles
 SCF Done:  E(RPM3) = -0.274110924246E-01 A.U. after    7 cycles
 SCF Done:  E(RPM3) = -0.274643256740E-01 A.U. after   10 cycles
 SCF Done:  E(RPM3) = -0.274747576227E-01 A.U. after    9 cycles
 SCF Done:  E(RPM3) = -0.274775062592E-01 A.U. after    9 cycles
 SCF Done:  E(RPM3) = -0.274798010888E-01 A.U. after    9 cycles
 SCF Done:  E(RPM3) = -0.274816889398E-01 A.U. after    9 cycles
 SCF Done:  E(RPM3) = -0.274829626724E-01 A.U. after    9 cycles
 SCF Done:  E(RPM3) = -0.274831193681E-01 A.U. after    8 cycles
 SCF Done:  E(RPM3) = -0.274831303889E-01 A.U. after    8 cycles
 Optimization completed.
    -- Stationary point found.

                         Standard orientation:
 ---------------------------------------------------------------------
 Center     Atomic      Atomic             Coordinates (Angstroms)
 Number     Number       Type             X           Y           Z
 ---------------------------------------------------------------------
      1          6           0       -0.897427   -1.312506   -0.968230
      2          1           0       -0.878262   -0.973383   -2.023688
      3          1           0       -1.412830   -2.294206   -0.976540
      4          6           0       -1.697804   -0.374943   -0.117578
      5          6           0       -1.876299   -0.791117    1.298109
      6          1           0       -2.283764    0.023001    1.918559
      7          1           0       -2.563673   -1.644227    1.368424
      8          1           0       -0.906883   -1.102675    1.724040
      9          6           0       -2.211094    0.753957   -0.624355
     10          1           0       -2.042018    1.007537   -1.678842
     11          6           0       -3.016129    1.726103    0.146136
     12          1           0       -3.049563    1.481533    1.220997
     13          1           0       -2.602767    2.738144    0.046272
     14          1           0       -4.049819    1.749995   -0.223580
     15          6           0        3.117824    1.378939   -0.457469
     16          1           0        3.028086    1.560601   -1.536635
     17          1           0        2.870018    2.316926    0.058079
     18          1           0        4.171737    1.153217   -0.245303
     19          6           0        2.239691    0.274275    0.014334
     20          6           0        2.356490   -0.053715    1.459046
     21          1           0        1.573103   -0.758093    1.786004
     22          1           0        3.330469   -0.513150    1.674054
     23          1           0        2.270510    0.851005    2.075205
     24          6           0        1.414424   -0.362507   -0.827470
     25          1           0        1.371201   -0.062116   -1.883009
     26          6           0        0.523629   -1.488476   -0.443716
     27          1           0        0.960745   -2.423796   -0.845527
     28          1           0        0.493882   -1.610373    0.668642
 ---------------------------------------------------------------------

 The electronic state is 1-A.
 Alpha  occ. eigenvalues --   -1.47633  -1.35658  -1.19647  -1.06538  -1.01662
 Alpha  occ. eigenvalues --   -0.96578  -0.88345  -0.77245  -0.66513  -0.65097
 Alpha  occ. eigenvalues --   -0.62185  -0.58700  -0.57770  -0.56403  -0.55191
 Alpha  occ. eigenvalues --   -0.54162  -0.51516  -0.49659  -0.49009  -0.48239
 Alpha  occ. eigenvalues --   -0.47891  -0.47546  -0.46854  -0.46280  -0.44979
 Alpha  occ. eigenvalues --   -0.43544  -0.42431  -0.34832  -0.34139
 Alpha virt. eigenvalues --    0.03898   0.04305   0.12265   0.12679   0.13213
 Alpha virt. eigenvalues --    0.13681   0.13849   0.14292   0.14735   0.15305
 Alpha virt. eigenvalues --    0.15526   0.15788   0.15974   0.16205   0.16458

 Mulliken charges:
               1
     1  C   -0.050101
     2  H    0.054510
     3  H    0.050850
     4  C   -0.126001
     5  C   -0.083833
     6  H    0.051719
     7  H    0.046159
     8  H    0.051690
     9  C   -0.149739
    10  H    0.098427
    11  C   -0.078714
    12  H    0.047274
    13  H    0.043711
    14  H    0.044279
    15  C   -0.067708
    16  H    0.041253
    17  H    0.044146
    18  H    0.042475
    19  C   -0.125087
    20  C   -0.075479
    21  H    0.048816
    22  H    0.045334
    23  H    0.045464
    24  C   -0.150352
    25  H    0.101083
    26  C   -0.075006
    27  H    0.055195
    28  H    0.069636
 Sum of Mulliken charges =  -0.00000

 Dipole moment (field-independent basis, Debye):
    X=              0.0786    Y=             -0.0516    Z=              0.3662  Tot=              0.3781
 N-N= 3.125638963900D+02 E-N=-5.073457045416D+02  KE=-7.911216609070D+01
 Leave Link  601 at Tue Jul 27 12:14:13 2021, MaxMem=   131072000 cpu:               0.0 elap:               0.0
 (Enter /opt/g16/l9999.exe)
 1\1\GINC-TOTEM\FOpt\RPM3\ZDO\C10H18\JRAMOS\27-Jul-2021\0\\#p opt pm3\\
 Conformer number 036. Energy MM = 25.902 kcal/mol\\0,1\C,2.2726073118,
 1.0198435699,-8.8764472099\H,1.8885002855,-0.0202464963,-8.8826323271\
 H,1.9179614834,1.4775871239,-9.8220385505\C,3.7702072788,1.0390989961,
 -8.8842150196\C,4.3913594206,2.3858772577,-8.9821444092\H,5.4726760249
 ,2.3569831741,-8.773114159\H,4.2539747006,2.8047701115,-9.9875683005\H
 ,3.9150439248,3.0734435122,-8.2619858058\C,4.4783850851,-0.0957520733,

 Normal termination of Gaussian 16 at Tue Jul 27 12:14:13 2021.
