 Gaussian 16, Revision A.03,
 Gaussian 16:  ES64L-G16RevA.03 25-Dec-2016

 ----------
 #p opt pm3
 ----------

 -------------------------------------------------
 Conformer number 015. Energy MM = 28.536 kcal/mol
 -------------------------------------------------
 Symbolic Z-matrix:
 Charge =  0 Multiplicity = 1

 SCF Done:  E(RPM3) = -0.183268733672E-01 A.U. after   12 cycles
 SCF Done:  E(RPM3) = -0.229335036465E-01 A.U. after   11 cycles
 SCF Done:  E(RPM3) = -0.241583672476E-01 A.U. after   11 cycles
 SCF Done:  E(RPM3) = -0.245256833373E-01 A.U. after   10 cycles
 SCF Done:  E(RPM3) = -0.248144674233E-01 A.U. after   11 cycles
 SCF Done:  E(RPM3) = -0.249294119319E-01 A.U. after   10 cycles
 SCF Done:  E(RPM3) = -0.250156235189E-01 A.U. after   10 cycles
 SCF Done:  E(RPM3) = -0.253125763634E-01 A.U. after   11 cycles
 SCF Done:  E(RPM3) = -0.256560358303E-01 A.U. after   11 cycles
 SCF Done:  E(RPM3) = -0.258002144526E-01 A.U. after   11 cycles
 SCF Done:  E(RPM3) = -0.264381948347E-01 A.U. after   10 cycles
 SCF Done:  E(RPM3) = -0.264376715752E-01 A.U. after    9 cycles
 SCF Done:  E(RPM3) = -0.264423696904E-01 A.U. after    9 cycles
 SCF Done:  E(RPM3) = -0.264486616371E-01 A.U. after   10 cycles
 SCF Done:  E(RPM3) = -0.264537976321E-01 A.U. after   10 cycles
 SCF Done:  E(RPM3) = -0.264554444704E-01 A.U. after   10 cycles
 SCF Done:  E(RPM3) = -0.264557006398E-01 A.U. after    9 cycles
 SCF Done:  E(RPM3) = -0.264558947658E-01 A.U. after    9 cycles
 SCF Done:  E(RPM3) = -0.264560418714E-01 A.U. after    9 cycles
 SCF Done:  E(RPM3) = -0.264560761329E-01 A.U. after    8 cycles
 Optimization completed.
    -- Stationary point found.

                         Standard orientation:
 ---------------------------------------------------------------------
 Center     Atomic      Atomic             Coordinates (Angstroms)
 Number     Number       Type             X           Y           Z
 ---------------------------------------------------------------------
      1          6           0        0.732886   -1.044739    0.133799
      2          1           0        0.626259   -1.440818    1.164762
      3          1           0        0.645748   -1.925355   -0.534440
      4          6           0        2.100157   -0.444601    0.009660
      5          6           0        3.160625   -1.377097   -0.453085
      6          1           0        4.157129   -0.905659   -0.437011
      7          1           0        3.200988   -2.270626    0.183706
      8          1           0        2.964690   -1.708326   -1.481818
      9          6           0        2.335467    0.835417    0.328676
     10          1           0        1.489193    1.461546    0.657370
     11          6           0        3.655578    1.495952    0.270202
     12          1           0        4.456748    0.803925   -0.038253
     13          1           0        3.639345    2.328993   -0.444870
     14          1           0        3.926241    1.904817    1.252520
     15          6           0       -4.180544   -0.526713    0.354191
     16          1           0       -4.089472   -1.550031    0.741796
     17          1           0       -4.688090    0.074537    1.120933
     18          1           0       -4.837040   -0.562558   -0.526001
     19          6           0       -2.866578    0.073715    0.003129
     20          6           0       -2.901659    1.460253   -0.529190
     21          1           0       -2.463182    1.506766   -1.536396
     22          1           0       -3.924571    1.853366   -0.593962
     23          1           0       -2.323367    2.142467    0.110421
     24          6           0       -1.724653   -0.610908    0.163633
     25          1           0       -1.751576   -1.634304    0.560116
     26          6           0       -0.387315   -0.060270   -0.171597
     27          1           0       -0.360664    0.225770   -1.243803
     28          1           0       -0.212163    0.889441    0.388422
 ---------------------------------------------------------------------

 The electronic state is 1-A.
 Alpha  occ. eigenvalues --   -1.47170  -1.36656  -1.18960  -1.08960  -1.01495
 Alpha  occ. eigenvalues --   -0.95766  -0.86183  -0.79683  -0.66742  -0.64722
 Alpha  occ. eigenvalues --   -0.60976  -0.58983  -0.58135  -0.56081  -0.54980
 Alpha  occ. eigenvalues --   -0.53901  -0.52045  -0.50540  -0.48863  -0.48843
 Alpha  occ. eigenvalues --   -0.48150  -0.47657  -0.47126  -0.46501  -0.45073
 Alpha  occ. eigenvalues --   -0.44336  -0.42548  -0.34563  -0.34343
 Alpha virt. eigenvalues --    0.03837   0.03984   0.11763   0.12689   0.13087
 Alpha virt. eigenvalues --    0.13730   0.14052   0.14213   0.14737   0.14946
 Alpha virt. eigenvalues --    0.15276   0.15735   0.15831   0.16066   0.16159

 Mulliken charges:
               1
     1  C   -0.056040
     2  H    0.057272
     3  H    0.054635
     4  C   -0.124646
     5  C   -0.075686
     6  H    0.049966
     7  H    0.045161
     8  H    0.046750
     9  C   -0.165514
    10  H    0.104976
    11  C   -0.073969
    12  H    0.047184
    13  H    0.043920
    14  H    0.043959
    15  C   -0.064342
    16  H    0.040998
    17  H    0.043841
    18  H    0.043885
    19  C   -0.129195
    20  C   -0.068665
    21  H    0.046073
    22  H    0.042983
    23  H    0.045236
    24  C   -0.159235
    25  H    0.104702
    26  C   -0.068356
    27  H    0.060157
    28  H    0.063950
 Sum of Mulliken charges =  -0.00000

 Dipole moment (field-independent basis, Debye):
    X=              0.0086    Y=              0.0763    Z=             -0.0876  Tot=              0.1165
 N-N= 3.031722936919D+02 E-N=-4.884863111429D+02  KE=-7.911152096507D+01
 Leave Link  601 at Fri Sep 17 19:56:13 2021, MaxMem=   131072000 cpu:               0.0 elap:               0.0
 (Enter /opt/g16/l9999.exe)
 1\1\GINC-TOTEM\FOpt\RPM3\ZDO\C10H18\JRAMOS\17-Sep-2021\0\\#p opt pm3\\
 Conformer number 015. Energy MM = 28.536 kcal/mol\\0,1\C,2.1415297142,
 1.1942467597,-8.8853322813\H,1.8447747721,0.1270257841,-8.9494433965\H
 ,1.9736055834,1.6118262482,-9.8987675107\C,3.6003983447,1.2475744571,-
 8.5478979701\C,4.5193409446,1.2690910829,-9.715526368\H,5.5763868021,1
 .2156165114,-9.4067769885\H,4.3212248057,0.4216527775,-10.384947364\H,
 4.3876241807,2.1918923534,-10.2964593095\C,4.026679336,1.2431142495,-7

 Normal termination of Gaussian 16 at Fri Sep 17 19:56:13 2021.
