 Gaussian 16, Revision A.03,
 Gaussian 16:  ES64L-G16RevA.03 25-Dec-2016

 ----------
 #p opt pm3
 ----------

 -------------------------------------------------
 Conformer number 007. Energy MM = 25.221 kcal/mol
 -------------------------------------------------
 Symbolic Z-matrix:
 Charge =  0 Multiplicity = 1

 SCF Done:  E(RPM3) = -0.191358488267E-01 A.U. after   12 cycles
 SCF Done:  E(RPM3) = -0.230033964326E-01 A.U. after   11 cycles
 SCF Done:  E(RPM3) = -0.238620509783E-01 A.U. after   11 cycles
 SCF Done:  E(RPM3) = -0.245930059592E-01 A.U. after   11 cycles
 SCF Done:  E(RPM3) = -0.254759753699E-01 A.U. after   11 cycles
 SCF Done:  E(RPM3) = -0.262407907051E-01 A.U. after   11 cycles
 SCF Done:  E(RPM3) = -0.269167679613E-01 A.U. after   12 cycles
 SCF Done:  E(RPM3) = -0.272225073035E-01 A.U. after   12 cycles
 SCF Done:  E(RPM3) = -0.270968190133E-01 A.U. after   10 cycles
 SCF Done:  E(RPM3) = -0.273641896862E-01 A.U. after   10 cycles
 SCF Done:  E(RPM3) = -0.274470845118E-01 A.U. after    9 cycles
 SCF Done:  E(RPM3) = -0.274517950547E-01 A.U. after    9 cycles
 SCF Done:  E(RPM3) = -0.274524534722E-01 A.U. after    9 cycles
 SCF Done:  E(RPM3) = -0.274531296802E-01 A.U. after    9 cycles
 SCF Done:  E(RPM3) = -0.274535374930E-01 A.U. after    9 cycles
 SCF Done:  E(RPM3) = -0.274536652185E-01 A.U. after    8 cycles
 SCF Done:  E(RPM3) = -0.274538315234E-01 A.U. after    8 cycles
 SCF Done:  E(RPM3) = -0.274538894237E-01 A.U. after    8 cycles
 SCF Done:  E(RPM3) = -0.274539154854E-01 A.U. after    7 cycles
 SCF Done:  E(RPM3) = -0.274539289426E-01 A.U. after    8 cycles
 Optimization completed.
    -- Stationary point found.

                         Standard orientation:
 ---------------------------------------------------------------------
 Center     Atomic      Atomic             Coordinates (Angstroms)
 Number     Number       Type             X           Y           Z
 ---------------------------------------------------------------------
      1          6           0        0.749322   -1.136959    0.825712
      2          1           0        0.485242   -0.679335    1.799971
      3          1           0        1.067722   -2.173287    1.057118
      4          6           0        1.895437   -0.406534    0.195171
      5          6           0        2.713105   -1.191472   -0.765808
      6          1           0        3.505941   -0.579901   -1.227052
      7          1           0        3.195995   -2.039929   -0.262579
      8          1           0        2.087898   -1.594645   -1.574370
      9          6           0        2.147226    0.873314    0.503578
     10          1           0        1.506279    1.395803    1.226381
     11          6           0        3.252983    1.675395   -0.062500
     12          1           0        3.847039    1.111087   -0.800322
     13          1           0        2.862983    2.571519   -0.562869
     14          1           0        3.934702    2.007134    0.731752
     15          6           0       -3.100960    1.664785   -0.200352
     16          1           0       -2.352152    2.457207   -0.330686
     17          1           0       -3.793867    1.719633   -1.050964
     18          1           0       -3.673691    1.895900    0.708268
     19          6           0       -2.492881    0.310232   -0.106855
     20          6           0       -3.458161   -0.811880    0.024308
     21          1           0       -2.953020   -1.760059    0.272552
     22          1           0       -4.195153   -0.608049    0.812181
     23          1           0       -4.006560   -0.961665   -0.915271
     24          6           0       -1.164254    0.142547   -0.144462
     25          1           0       -0.497187    1.011882   -0.236057
     26          6           0       -0.481198   -1.175398   -0.074558
     27          1           0       -1.187757   -1.955974    0.289149
     28          1           0       -0.198129   -1.481508   -1.102617
 ---------------------------------------------------------------------

 The electronic state is 1-A.
 Alpha  occ. eigenvalues --   -1.47364  -1.36011  -1.19358  -1.07315  -1.01376
 Alpha  occ. eigenvalues --   -0.95998  -0.88629  -0.77689  -0.65985  -0.65513
 Alpha  occ. eigenvalues --   -0.61554  -0.59828  -0.58065  -0.55645  -0.55183
 Alpha  occ. eigenvalues --   -0.53654  -0.50956  -0.50681  -0.49070  -0.48308
 Alpha  occ. eigenvalues --   -0.48143  -0.47411  -0.47282  -0.46700  -0.45187
 Alpha  occ. eigenvalues --   -0.43238  -0.42303  -0.35085  -0.34143
 Alpha virt. eigenvalues --    0.03667   0.04282   0.12322   0.12473   0.13411
 Alpha virt. eigenvalues --    0.13626   0.14054   0.14081   0.14534   0.15009
 Alpha virt. eigenvalues --    0.15690   0.15741   0.16154   0.16266   0.16365

 Mulliken charges:
               1
     1  C   -0.053116
     2  H    0.056306
     3  H    0.051034
     4  C   -0.125202
     5  C   -0.076463
     6  H    0.049863
     7  H    0.045857
     8  H    0.047313
     9  C   -0.153054
    10  H    0.100351
    11  C   -0.078998
    12  H    0.047930
    13  H    0.044076
    14  H    0.044688
    15  C   -0.067356
    16  H    0.041596
    17  H    0.042872
    18  H    0.043270
    19  C   -0.127143
    20  C   -0.075143
    21  H    0.048490
    22  H    0.044703
    23  H    0.045979
    24  C   -0.160015
    25  H    0.109653
    26  C   -0.065513
    27  H    0.058371
    28  H    0.059650
 Sum of Mulliken charges =   0.00000

 Dipole moment (field-independent basis, Debye):
    X=             -0.0502    Y=             -0.1501    Z=             -0.1381  Tot=              0.2100
 N-N= 3.081132863752D+02 E-N=-4.984184515638D+02  KE=-7.910957960062D+01
 Leave Link  601 at Fri Sep 17 19:55:44 2021, MaxMem=   131072000 cpu:               0.1 elap:               0.1
 (Enter /opt/g16/l9999.exe)
 1\1\GINC-TOTEM\FOpt\RPM3\ZDO\C10H18\JRAMOS\17-Sep-2021\0\\#p opt pm3\\
 Conformer number 007. Energy MM = 25.221 kcal/mol\\0,1\C,2.4887393743,
 0.8892393018,-9.1296309122\H,2.4357424923,-0.1855329168,-9.3949468894\
 H,2.2698203445,1.4408912905,-10.0659308242\C,3.8671124324,1.2488690205
 ,-8.6654796934\C,4.2519742717,2.675343369,-8.8243592486\H,5.2567241342
 ,2.8781281969,-8.4185161525\H,4.2563746092,2.9606874559,-9.8849539382\
 H,3.5417171136,3.3330470098,-8.3045850639\C,4.682555361,0.3186416474,-

 Normal termination of Gaussian 16 at Fri Sep 17 19:55:44 2021.
