 Gaussian 16, Revision A.03,
 Gaussian 16:  ES64L-G16RevA.03 25-Dec-2016

 ----------
 #p opt pm3
 ----------

 -------------------------------------------------
 Conformer number 041. Energy MM = 26.841 kcal/mol
 -------------------------------------------------
 Symbolic Z-matrix:
 Charge =  0 Multiplicity = 1

 SCF Done:  E(RPM3) = -0.175195068510E-01 A.U. after   12 cycles
 SCF Done:  E(RPM3) = -0.214887213540E-01 A.U. after   10 cycles
 SCF Done:  E(RPM3) = -0.234824711720E-01 A.U. after   12 cycles
 SCF Done:  E(RPM3) = -0.246473001025E-01 A.U. after   11 cycles
 SCF Done:  E(RPM3) = -0.251900263508E-01 A.U. after   11 cycles
 SCF Done:  E(RPM3) = -0.256845967119E-01 A.U. after   10 cycles
 SCF Done:  E(RPM3) = -0.260837124246E-01 A.U. after   10 cycles
 SCF Done:  E(RPM3) = -0.264773603358E-01 A.U. after   11 cycles
 SCF Done:  E(RPM3) = -0.267674455753E-01 A.U. after   11 cycles
 SCF Done:  E(RPM3) = -0.268458136019E-01 A.U. after   10 cycles
 SCF Done:  E(RPM3) = -0.269539015778E-01 A.U. after   10 cycles
 SCF Done:  E(RPM3) = -0.269648405571E-01 A.U. after   10 cycles
 SCF Done:  E(RPM3) = -0.269679624362E-01 A.U. after    9 cycles
 SCF Done:  E(RPM3) = -0.269688113405E-01 A.U. after    9 cycles
 SCF Done:  E(RPM3) = -0.269691784096E-01 A.U. after    9 cycles
 SCF Done:  E(RPM3) = -0.269695634376E-01 A.U. after    9 cycles
 SCF Done:  E(RPM3) = -0.269696042957E-01 A.U. after    8 cycles
 SCF Done:  E(RPM3) = -0.269696382919E-01 A.U. after    8 cycles
 SCF Done:  E(RPM3) = -0.269696700093E-01 A.U. after    8 cycles
 SCF Done:  E(RPM3) = -0.269696953083E-01 A.U. after    8 cycles
 Optimization completed.
    -- Stationary point found.

                         Standard orientation:
 ---------------------------------------------------------------------
 Center     Atomic      Atomic             Coordinates (Angstroms)
 Number     Number       Type             X           Y           Z
 ---------------------------------------------------------------------
      1          6           0        0.902307    1.590593   -0.390000
      2          1           0        1.513015    2.078461   -1.176180
      3          1           0        0.735884    2.366774    0.384071
      4          6           0        1.661574    0.440821    0.198364
      5          6           0        1.446282    0.194826    1.646975
      6          1           0        1.959201   -0.718170    1.990762
      7          1           0        1.823239    1.035923    2.244085
      8          1           0        0.373423    0.084872    1.861216
      9          6           0        2.473565   -0.302876   -0.565512
     10          1           0        2.586098   -0.064852   -1.631155
     11          6           0        3.258685   -1.458662   -0.082172
     12          1           0        3.067285   -1.679854    0.981011
     13          1           0        3.015958   -2.360112   -0.659966
     14          1           0        4.334240   -1.269273   -0.195917
     15          6           0       -3.276172   -0.475836    1.053680
     16          1           0       -3.280946    0.309562    1.821035
     17          1           0       -4.285204   -0.524671    0.622252
     18          1           0       -3.086015   -1.432314    1.559679
     19          6           0       -2.262946   -0.234978   -0.008907
     20          6           0       -2.235716   -1.243785   -1.099523
     21          1           0       -1.371731   -1.101050   -1.769475
     22          1           0       -2.178956   -2.261619   -0.691705
     23          1           0       -3.146592   -1.178470   -1.709460
     24          6           0       -1.446993    0.826986    0.039009
     25          1           0       -1.515254    1.532213    0.878566
     26          6           0       -0.427353    1.151392   -0.993143
     27          1           0       -0.269714    0.285220   -1.675599
     28          1           0       -0.833325    1.966472   -1.625853
 ---------------------------------------------------------------------

 The electronic state is 1-A.
 Alpha  occ. eigenvalues --   -1.47442  -1.35607  -1.19417  -1.07169  -1.01162
 Alpha  occ. eigenvalues --   -0.97430  -0.86835  -0.78396  -0.66245  -0.65281
 Alpha  occ. eigenvalues --   -0.61384  -0.59672  -0.57328  -0.55739  -0.55702
 Alpha  occ. eigenvalues --   -0.54004  -0.51536  -0.49892  -0.48432  -0.48281
 Alpha  occ. eigenvalues --   -0.47919  -0.47679  -0.47181  -0.46210  -0.45530
 Alpha  occ. eigenvalues --   -0.43307  -0.42510  -0.35252  -0.33836
 Alpha virt. eigenvalues --    0.03726   0.04301   0.12290   0.12609   0.13454
 Alpha virt. eigenvalues --    0.13680   0.13932   0.14075   0.14927   0.15276
 Alpha virt. eigenvalues --    0.15454   0.15703   0.16008   0.16134   0.16422

 Mulliken charges:
               1
     1  C   -0.052140
     2  H    0.050324
     3  H    0.054101
     4  C   -0.119844
     5  C   -0.081601
     6  H    0.049519
     7  H    0.045320
     8  H    0.054703
     9  C   -0.156997
    10  H    0.097279
    11  C   -0.077328
    12  H    0.048055
    13  H    0.043164
    14  H    0.043873
    15  C   -0.068275
    16  H    0.040901
    17  H    0.043337
    18  H    0.043934
    19  C   -0.124963
    20  C   -0.075950
    21  H    0.050828
    22  H    0.045526
    23  H    0.045515
    24  C   -0.154874
    25  H    0.101934
    26  C   -0.065235
    27  H    0.065157
    28  H    0.053739
 Sum of Mulliken charges =   0.00000

 Dipole moment (field-independent basis, Debye):
    X=             -0.1875    Y=             -0.1958    Z=              0.0386  Tot=              0.2738
 N-N= 3.126203648125D+02 E-N=-5.074621768596D+02  KE=-7.910489690367D+01
 Leave Link  601 at Fri Sep 17 19:56:27 2021, MaxMem=   131072000 cpu:               0.0 elap:               0.0
 (Enter /opt/g16/l9999.exe)
 1\1\GINC-TOTEM\FOpt\RPM3\ZDO\C10H18\JRAMOS\17-Sep-2021\0\\#p opt pm3\\
 Conformer number 041. Energy MM = 26.841 kcal/mol\\0,1\C,2.2788974556,
 1.2717748968,-8.9560786521\H,1.8026742827,0.3080909593,-9.2273408883\H
 ,2.0079698049,1.9778901944,-9.766843901\C,3.7667199246,1.1031412887,-8
 .9052771859\C,4.5675246801,2.2739261992,-9.3449505208\H,5.6475924366,2
 .1150717985,-9.1931090053\H,4.4054639958,2.4768093119,-10.4120275947\H
 ,4.2723497115,3.1721104181,-8.7835661126\C,4.3089508773,-0.0459700899,

 Normal termination of Gaussian 16 at Fri Sep 17 19:56:27 2021.
