 Gaussian 16, Revision A.03,
 Gaussian 16:  EM64L-G16RevA.03 25-Dec-2016

 ----------
 #p opt pm3
 ----------

 -------------------------------------------------
 Conformer number 419. Energy MM = 23.692 kcal/mol
 -------------------------------------------------
 Symbolic Z-matrix:
 Charge =  0 Multiplicity = 1

 SCF Done:  E(RPM3) = -0.195639858371E-01 A.U. after   12 cycles
 SCF Done:  E(RPM3) = -0.247594589596E-01 A.U. after   11 cycles
 SCF Done:  E(RPM3) = -0.257255077090E-01 A.U. after   11 cycles
 SCF Done:  E(RPM3) = -0.264857509612E-01 A.U. after   11 cycles
 SCF Done:  E(RPM3) = -0.266826226643E-01 A.U. after   10 cycles
 SCF Done:  E(RPM3) = -0.268900656833E-01 A.U. after   11 cycles
 SCF Done:  E(RPM3) = -0.269612050449E-01 A.U. after   11 cycles
 SCF Done:  E(RPM3) = -0.269831132393E-01 A.U. after   10 cycles
 SCF Done:  E(RPM3) = -0.270440019679E-01 A.U. after   11 cycles
 SCF Done:  E(RPM3) = -0.269509484105E-01 A.U. after   11 cycles
 SCF Done:  E(RPM3) = -0.275538396461E-01 A.U. after   10 cycles
 SCF Done:  E(RPM3) = -0.275630492262E-01 A.U. after    9 cycles
 SCF Done:  E(RPM3) = -0.275704586139E-01 A.U. after    9 cycles
 SCF Done:  E(RPM3) = -0.275722751907E-01 A.U. after    9 cycles
 SCF Done:  E(RPM3) = -0.275728996901E-01 A.U. after    9 cycles
 SCF Done:  E(RPM3) = -0.275730043128E-01 A.U. after    8 cycles
 SCF Done:  E(RPM3) = -0.275730368612E-01 A.U. after    8 cycles
 SCF Done:  E(RPM3) = -0.275730505338E-01 A.U. after    8 cycles
 SCF Done:  E(RPM3) = -0.275730591583E-01 A.U. after    8 cycles
 SCF Done:  E(RPM3) = -0.275730670810E-01 A.U. after    8 cycles
 Optimization completed.
    -- Stationary point found.

                         Standard orientation:
 ---------------------------------------------------------------------
 Center     Atomic      Atomic             Coordinates (Angstroms)
 Number     Number       Type             X           Y           Z
 ---------------------------------------------------------------------
      1          6           0        1.197402   -0.399489    1.225992
      2          1           0        1.771482   -1.100516    1.864345
      3          1           0        1.351324    0.611194    1.667076
      4          6           0        1.768292   -0.455231   -0.155711
      5          6           0        1.702258   -1.785340   -0.820749
      6          1           0        1.892366   -1.731801   -1.900026
      7          1           0        2.439852   -2.471742   -0.383831
      8          1           0        0.702586   -2.231033   -0.673482
      9          6           0        2.320262    0.598809   -0.771413
     10          1           0        2.729761    0.483078   -1.783419
     11          6           0        2.433916    1.954796   -0.192993
     12          1           0        1.911977    2.687174   -0.822902
     13          1           0        2.003354    2.018358    0.820197
     14          1           0        3.486582    2.260321   -0.128442
     15          6           0       -3.024088    1.380638   -0.412157
     16          1           0       -4.080185    1.179295   -0.186770
     17          1           0       -2.739942    2.297607    0.120827
     18          1           0       -2.948885    1.586425   -1.488742
     19          6           0       -2.177263    0.214756   -0.041503
     20          6           0       -2.551153   -1.070473   -0.687111
     21          1           0       -1.788003   -1.850005   -0.523423
     22          1           0       -3.502235   -1.443506   -0.284335
     23          1           0       -2.673584   -0.945050   -1.770988
     24          6           0       -1.157551    0.343981    0.817984
     25          1           0       -0.927211    1.326875    1.250903
     26          6           0       -0.280123   -0.772449    1.256708
     27          1           0       -0.446025   -1.679919    0.622612
     28          1           0       -0.574928   -1.056736    2.286110
 ---------------------------------------------------------------------

 The electronic state is 1-A.
 Alpha  occ. eigenvalues --   -1.47907  -1.35301  -1.17841  -1.10538  -1.01419
 Alpha  occ. eigenvalues --   -0.94674  -0.86775  -0.79507  -0.66543  -0.65265
 Alpha  occ. eigenvalues --   -0.60658  -0.58989  -0.57932  -0.56251  -0.55589
 Alpha  occ. eigenvalues --   -0.54268  -0.51368  -0.49637  -0.48421  -0.48266
 Alpha  occ. eigenvalues --   -0.47966  -0.47665  -0.47207  -0.46228  -0.45479
 Alpha  occ. eigenvalues --   -0.44005  -0.41693  -0.34811  -0.34134
 Alpha virt. eigenvalues --    0.03912   0.04278   0.12316   0.12656   0.13169
 Alpha virt. eigenvalues --    0.13518   0.13870   0.14330   0.14902   0.15187
 Alpha virt. eigenvalues --    0.15459   0.15848   0.15956   0.16062   0.16328

 Mulliken charges:
               1
     1  C   -0.058813
     2  H    0.052785
     3  H    0.063256
     4  C   -0.124265
     5  C   -0.076956
     6  H    0.043609
     7  H    0.044263
     8  H    0.049852
     9  C   -0.150269
    10  H    0.097437
    11  C   -0.077885
    12  H    0.044887
    13  H    0.047180
    14  H    0.043217
    15  C   -0.067549
    16  H    0.042481
    17  H    0.041092
    18  H    0.044217
    19  C   -0.125330
    20  C   -0.075452
    21  H    0.048828
    22  H    0.045403
    23  H    0.045432
    24  C   -0.150719
    25  H    0.101225
    26  C   -0.072608
    27  H    0.069473
    28  H    0.055209
 Sum of Mulliken charges =  -0.00000

 Dipole moment (field-independent basis, Debye):
    X=             -0.1804    Y=             -0.1689    Z=              0.0015  Tot=              0.2471
 N-N= 3.142429818893D+02 E-N=-5.107042401796D+02  KE=-7.911009136476D+01
 Leave Link  601 at Mon Jul 26 11:29:02 2021, MaxMem=   131072000 cpu:               0.0 elap:               0.0
 (Enter /opt/gaussian/g16_legacy/l9999.exe)
 1\1\GINC-TRUENO93\FOpt\RPM3\ZDO\C10H18\JRAMOS\26-Jul-2021\0\\#p opt pm
 3\\Conformer number 419. Energy MM = 23.692 kcal/mol\\0,1\C,-1.4749471
 303,0.3364267161,1.1444011612\H,-2.1672760324,1.0044462324,1.694793035
 3\H,-1.722035883,-0.6980184536,1.4739434825\C,-1.7431777262,0.49295547
 37,-0.3190457628\C,-1.5337648991,1.8623593345,-0.863752373\H,-1.493543
 2274,1.8831187869,-1.9600176165\H,-2.3437913205,2.5319599067,-0.545032
 3705\H,-0.5854021229,2.2791891493,-0.480954044\C,-2.158033209,-0.50826

 Normal termination of Gaussian 16 at Mon Jul 26 11:29:02 2021.
