 Gaussian 16, Revision A.03,
 Gaussian 16:  EM64L-G16RevA.03 25-Dec-2016

 ----------
 #p opt pm3
 ----------

 -------------------------------------------------
 Conformer number 238. Energy MM = 23.959 kcal/mol
 -------------------------------------------------
 Symbolic Z-matrix:
 Charge =  0 Multiplicity = 1

 SCF Done:  E(RPM3) = -0.195360194302E-01 A.U. after   12 cycles
 SCF Done:  E(RPM3) = -0.239054638906E-01 A.U. after   11 cycles
 SCF Done:  E(RPM3) = -0.249704717408E-01 A.U. after   11 cycles
 SCF Done:  E(RPM3) = -0.253789301786E-01 A.U. after   11 cycles
 SCF Done:  E(RPM3) = -0.260414071481E-01 A.U. after   11 cycles
 SCF Done:  E(RPM3) = -0.263788723872E-01 A.U. after   11 cycles
 SCF Done:  E(RPM3) = -0.264992429781E-01 A.U. after   11 cycles
 SCF Done:  E(RPM3) = -0.265668458657E-01 A.U. after   10 cycles
 SCF Done:  E(RPM3) = -0.266021569986E-01 A.U. after    9 cycles
 SCF Done:  E(RPM3) = -0.266236485068E-01 A.U. after   10 cycles
 SCF Done:  E(RPM3) = -0.266476372625E-01 A.U. after   10 cycles
 SCF Done:  E(RPM3) = -0.266549907855E-01 A.U. after   10 cycles
 SCF Done:  E(RPM3) = -0.266584287721E-01 A.U. after    9 cycles
 SCF Done:  E(RPM3) = -0.266588581478E-01 A.U. after    9 cycles
 SCF Done:  E(RPM3) = -0.266593387522E-01 A.U. after    9 cycles
 SCF Done:  E(RPM3) = -0.266597404281E-01 A.U. after    9 cycles
 SCF Done:  E(RPM3) = -0.266598561744E-01 A.U. after    8 cycles
 SCF Done:  E(RPM3) = -0.266599077970E-01 A.U. after    8 cycles
 SCF Done:  E(RPM3) = -0.266599386453E-01 A.U. after    8 cycles
 SCF Done:  E(RPM3) = -0.266599523760E-01 A.U. after    8 cycles
 Optimization completed.
    -- Stationary point found.

                         Standard orientation:
 ---------------------------------------------------------------------
 Center     Atomic      Atomic             Coordinates (Angstroms)
 Number     Number       Type             X           Y           Z
 ---------------------------------------------------------------------
      1          6           0       -1.123196    0.138030    1.237118
      2          1           0       -1.926008   -0.475620    1.706238
      3          1           0       -0.922370    0.971286    1.939251
      4          6           0       -1.625909    0.683453   -0.061917
      5          6           0       -0.963826    1.921561   -0.551317
      6          1           0       -1.293814    2.210037   -1.557802
      7          1           0       -1.176655    2.762780    0.122621
      8          1           0        0.127952    1.787675   -0.580411
      9          6           0       -2.624127    0.112887   -0.751084
     10          1           0       -2.953692    0.553339   -1.700825
     11          6           0       -3.348577   -1.103218   -0.323041
     12          1           0       -3.140517   -1.360656    0.729270
     13          1           0       -4.433068   -0.970548   -0.427167
     14          1           0       -3.056598   -1.963119   -0.940579
     15          6           0        3.523770    0.618809   -0.178878
     16          1           0        3.578086    1.080072   -1.174556
     17          1           0        4.424802    0.003969   -0.049428
     18          1           0        3.564094    1.427097    0.563244
     19          6           0        2.297669   -0.214900   -0.054734
     20          6           0        2.208663   -1.356365   -1.001852
     21          1           0        1.221662   -1.846263   -0.963414
     22          1           0        2.967819   -2.114179   -0.766515
     23          1           0        2.377646   -1.023566   -2.034446
     24          6           0        1.357345    0.066617    0.857832
     25          1           0        1.483709    0.930129    1.525039
     26          6           0        0.118721   -0.729450    1.063270
     27          1           0        0.264455   -1.348917    1.971434
     28          1           0       -0.030709   -1.448063    0.225668
 ---------------------------------------------------------------------

 The electronic state is 1-A.
 Alpha  occ. eigenvalues --   -1.47865  -1.35385  -1.17245  -1.10933  -1.01344
 Alpha  occ. eigenvalues --   -0.95437  -0.85666  -0.80013  -0.66678  -0.65248
 Alpha  occ. eigenvalues --   -0.60565  -0.59330  -0.57487  -0.57021  -0.55288
 Alpha  occ. eigenvalues --   -0.53635  -0.51398  -0.49738  -0.48549  -0.48347
 Alpha  occ. eigenvalues --   -0.47680  -0.47512  -0.47167  -0.46702  -0.46200
 Alpha  occ. eigenvalues --   -0.42924  -0.42472  -0.35336  -0.33822
 Alpha virt. eigenvalues --    0.03619   0.04329   0.12260   0.12649   0.13365
 Alpha virt. eigenvalues --    0.13622   0.13847   0.14083   0.14811   0.15309
 Alpha virt. eigenvalues --    0.15506   0.15748   0.16021   0.16124   0.16295

 Mulliken charges:
               1
     1  C   -0.058924
     2  H    0.057691
     3  H    0.056489
     4  C   -0.120234
     5  C   -0.077962
     6  H    0.041295
     7  H    0.043700
     8  H    0.056195
     9  C   -0.157444
    10  H    0.099072
    11  C   -0.078173
    12  H    0.047031
    13  H    0.042470
    14  H    0.044938
    15  C   -0.068521
    16  H    0.043965
    17  H    0.043576
    18  H    0.041147
    19  C   -0.125508
    20  C   -0.076273
    21  H    0.051134
    22  H    0.045748
    23  H    0.045629
    24  C   -0.154613
    25  H    0.101907
    26  C   -0.063607
    27  H    0.053427
    28  H    0.065844
 Sum of Mulliken charges =  -0.00000

 Dipole moment (field-independent basis, Debye):
    X=              0.2332    Y=             -0.1942    Z=             -0.0154  Tot=              0.3039
 N-N= 3.134282381815D+02 E-N=-5.090613921721D+02  KE=-7.910865187467D+01
 Leave Link  601 at Mon Jul 26 11:29:07 2021, MaxMem=   131072000 cpu:               0.0 elap:               0.0
 (Enter /opt/gaussian/g16_legacy/l9999.exe)
 1\1\GINC-TRUENO92\FOpt\RPM3\ZDO\C10H18\JRAMOS\26-Jul-2021\0\\#p opt pm
 3\\Conformer number 238. Energy MM = 23.959 kcal/mol\\0,1\C,-1.4823790
 231,0.4074243827,0.9381875831\H,-2.3021662696,-0.12167896,1.4759098748
 \H,-1.5955463851,1.4817306371,1.1845547159\C,-1.6587128173,0.206431603
 9,-0.5336154468\C,-1.0450171159,1.2368412475,-1.4124841904\H,-1.108301
 9136,0.9786895472,-2.477601967\H,-1.5443165539,2.2057698435,-1.2745904
 891\H,0.0176944543,1.3724577762,-1.1614796133\C,-2.3399763417,-0.82677

 Normal termination of Gaussian 16 at Mon Jul 26 11:29:07 2021.
