 Gaussian 16, Revision A.03,
 Gaussian 16:  EM64L-G16RevA.03 25-Dec-2016

 ------------------------------------------------
 #p opt 6-31g(d,p) pop=mk geom=connectivity m062x
 ------------------------------------------------

 ------------------
 EVOH model CC(O)CC
 ------------------
 Symbolic Z-matrix:
 Charge =  0 Multiplicity = 1

 SCF Done:  E(RM062X) =  -272.847500731     A.U. after   12 cycles
 SCF Done:  E(RM062X) =  -272.854832569     A.U. after   11 cycles
 SCF Done:  E(RM062X) =  -272.855500223     A.U. after   11 cycles
 SCF Done:  E(RM062X) =  -272.855599052     A.U. after   10 cycles
 SCF Done:  E(RM062X) =  -272.855623296     A.U. after   10 cycles
 SCF Done:  E(RM062X) =  -272.855639239     A.U. after   10 cycles
 SCF Done:  E(RM062X) =  -272.855646256     A.U. after   10 cycles
 SCF Done:  E(RM062X) =  -272.855647995     A.U. after    8 cycles
 SCF Done:  E(RM062X) =  -272.855648146     A.U. after    7 cycles
 Optimization completed.
    -- Stationary point found.

                         Standard orientation:
 ---------------------------------------------------------------------
 Center     Atomic      Atomic             Coordinates (Angstroms)
 Number     Number       Type             X           Y           Z
 ---------------------------------------------------------------------
      1          6           0       -2.534900   -0.009734    0.210756
      2          1           0       -3.422879   -0.592123   -0.044757
      3          1           0       -2.560107    0.178721    1.289878
      4          1           0       -2.617212    0.950475   -0.307454
      5          6           0       -1.254790   -0.737584   -0.190845
      6          1           0       -1.229950   -0.874358   -1.278465
      7          1           0       -1.234392   -1.735597    0.262447
      8          6           0        0.009735    0.012575    0.226016
      9          8           0        0.040222    1.317923   -0.334612
     10          1           0       -0.633292    1.850517    0.100857
     11          1           0        0.031270    0.080408    1.328855
     12          6           0        1.276384   -0.690847   -0.241338
     13          1           0        1.250273   -1.728490    0.111023
     14          1           0        1.255056   -0.721664   -1.337471
     15          6           0        2.544852    0.006839    0.238831
     16          1           0        2.594341    0.015191    1.332569
     17          1           0        3.440652   -0.495985   -0.133622
     18          1           0        2.556779    1.042026   -0.107479
 ---------------------------------------------------------------------

 The electronic state is 1-A.
 Alpha  occ. eigenvalues --  -19.62798 -10.58750 -10.53797 -10.53705 -10.53288
 Alpha  occ. eigenvalues --  -10.52252  -1.13407  -0.88828  -0.84842  -0.76309
 Alpha  occ. eigenvalues --   -0.68310  -0.65075  -0.59371  -0.53274  -0.50168
 Alpha  occ. eigenvalues --   -0.48284  -0.47995  -0.45904  -0.42909  -0.41647
 Alpha  occ. eigenvalues --   -0.40330  -0.39876  -0.39092  -0.36583  -0.33082
 Alpha virt. eigenvalues --    0.11327   0.15619   0.16791   0.17390   0.19005
 Alpha virt. eigenvalues --    0.20042   0.21753   0.22266   0.22817   0.23974
 Alpha virt. eigenvalues --    0.24865   0.26416   0.26517   0.30106   0.30792

 Mulliken charges:
               1
     1  C   -0.387354
     2  H    0.130906
     3  H    0.116333
     4  H    0.117112
     5  C   -0.210418
     6  H    0.120213
     7  H    0.109296
     8  C    0.146692
     9  O   -0.571957
    10  H    0.327263
    11  H    0.081007
    12  C   -0.214140
    13  H    0.107590
    14  H    0.120970
    15  C   -0.365541
    16  H    0.110379
    17  H    0.116358
    18  H    0.145290
 Sum of Mulliken charges =  -0.00000

 Dipole moment (field-independent basis, Debye):
    X=             -1.0953    Y=             -0.3786    Z=              0.9735  Tot=              1.5135
 Quadrupole moment (field-independent basis, Debye-Ang):
   XX=            -39.1544   YY=            -38.8107   ZZ=            -40.0386
   XY=             -2.0231   XZ=             -0.2595   YZ=              1.5857

 ESP charges:
               1
     1  C   -0.163311
     2  H    0.061067
     3  H    0.035827
     4  H    0.044386
     5  C   -0.072980
     6  H    0.036127
     7  H    0.025248
     8  C    0.232578
     9  O   -0.591283
    10  H    0.380199
    11  H    0.004798
    12  C   -0.013162
    13  H    0.003807
    14  H    0.047836
    15  C   -0.189159
    16  H    0.043085
    17  H    0.053246
    18  H    0.061689
 Sum of ESP charges =  -0.00000

 Normal termination of Gaussian 16 at Tue Feb  8 21:28:36 2022.
