 Gaussian 16, Revision A.03,
 Gaussian 16:  ES64L-G16RevA.03 25-Dec-2016

 ----------
 #p opt pm3
 ----------

 -------------------------------------------------
 Conformer number 067. Energy MM = 23.486 kcal/mol
 -------------------------------------------------
 Symbolic Z-matrix:
 Charge =  0 Multiplicity = 1

 SCF Done:  E(RPM3) = -0.193198456054E-01 A.U. after   12 cycles
 SCF Done:  E(RPM3) = -0.244150303299E-01 A.U. after   11 cycles
 SCF Done:  E(RPM3) = -0.248101008144E-01 A.U. after   11 cycles
 SCF Done:  E(RPM3) = -0.262443694789E-01 A.U. after   11 cycles
 SCF Done:  E(RPM3) = -0.265638242518E-01 A.U. after   11 cycles
 SCF Done:  E(RPM3) = -0.268409680855E-01 A.U. after   11 cycles
 SCF Done:  E(RPM3) = -0.272176798535E-01 A.U. after   12 cycles
 SCF Done:  E(RPM3) = -0.272426153315E-01 A.U. after   11 cycles
 SCF Done:  E(RPM3) = -0.273678327711E-01 A.U. after   11 cycles
 SCF Done:  E(RPM3) = -0.275198550482E-01 A.U. after   11 cycles
 SCF Done:  E(RPM3) = -0.276434478048E-01 A.U. after    9 cycles
 SCF Done:  E(RPM3) = -0.276458453246E-01 A.U. after    9 cycles
 SCF Done:  E(RPM3) = -0.276477158862E-01 A.U. after    9 cycles
 SCF Done:  E(RPM3) = -0.276482666137E-01 A.U. after    9 cycles
 SCF Done:  E(RPM3) = -0.276484412332E-01 A.U. after    8 cycles
 SCF Done:  E(RPM3) = -0.276484878335E-01 A.U. after    8 cycles
 SCF Done:  E(RPM3) = -0.276485457524E-01 A.U. after    8 cycles
 SCF Done:  E(RPM3) = -0.276485832652E-01 A.U. after    8 cycles
 SCF Done:  E(RPM3) = -0.276486138884E-01 A.U. after    8 cycles
 SCF Done:  E(RPM3) = -0.276486400748E-01 A.U. after    8 cycles
 Optimization completed.
    -- Stationary point found.

                         Standard orientation:
 ---------------------------------------------------------------------
 Center     Atomic      Atomic             Coordinates (Angstroms)
 Number     Number       Type             X           Y           Z
 ---------------------------------------------------------------------
      1          6           0        1.004857   -0.669397    0.941393
      2          1           0        1.385337   -1.465817    1.611311
      3          1           0        0.824538    0.217370    1.588992
      4          6           0        2.060823   -0.366715   -0.074568
      5          6           0        2.469331   -1.516013   -0.927547
      6          1           0        3.096361   -2.214943   -0.358012
      7          1           0        1.575250   -2.068131   -1.265919
      8          1           0        3.033566   -1.207743   -1.816602
      9          6           0        2.622738    0.840406   -0.222437
     10          1           0        3.398787    0.988450   -0.984716
     11          6           0        2.281241    2.036470    0.577007
     12          1           0        3.172491    2.433120    1.080673
     13          1           0        1.882257    2.829383   -0.069509
     14          1           0        1.524755    1.823906    1.350598
     15          6           0       -3.270170   -0.793825    0.554420
     16          1           0       -3.899299   -1.344004   -0.157955
     17          1           0       -3.936123   -0.275142    1.256534
     18          1           0       -2.686743   -1.533464    1.127426
     19          6           0       -2.392302    0.169857   -0.158843
     20          6           0       -3.088792    1.336587   -0.764618
     21          1           0       -3.859479    1.002076   -1.472311
     22          1           0       -2.405540    2.002374   -1.308253
     23          1           0       -3.588209    1.934627    0.009949
     24          6           0       -1.065159    0.021635   -0.267299
     25          1           0       -0.465666    0.771764   -0.801326
     26          6           0       -0.299293   -1.121342    0.293722
     27          1           0       -0.919232   -1.679932    1.030069
     28          1           0       -0.072698   -1.839874   -0.528326
 ---------------------------------------------------------------------

 The electronic state is 1-A.
 Alpha  occ. eigenvalues --   -1.47903  -1.35722  -1.17831  -1.10227  -1.01280
 Alpha  occ. eigenvalues --   -0.94897  -0.86876  -0.79492  -0.67049  -0.64123
 Alpha  occ. eigenvalues --   -0.61246  -0.59909  -0.57803  -0.56517  -0.55214
 Alpha  occ. eigenvalues --   -0.53680  -0.51063  -0.50316  -0.48455  -0.48256
 Alpha  occ. eigenvalues --   -0.47918  -0.47611  -0.47258  -0.46945  -0.45744
 Alpha  occ. eigenvalues --   -0.42773  -0.42397  -0.35103  -0.34030
 Alpha virt. eigenvalues --    0.03678   0.04295   0.12391   0.12449   0.13237
 Alpha virt. eigenvalues --    0.13579   0.13946   0.14237   0.14753   0.14953
 Alpha virt. eigenvalues --    0.15499   0.15819   0.15908   0.16093   0.16348

 Mulliken charges:
               1
     1  C   -0.060988
     2  H    0.053660
     3  H    0.065765
     4  C   -0.126687
     5  C   -0.076920
     6  H    0.045100
     7  H    0.050436
     8  H    0.043602
     9  C   -0.151759
    10  H    0.097864
    11  C   -0.079834
    12  H    0.044023
    13  H    0.044633
    14  H    0.049721
    15  C   -0.074991
    16  H    0.045923
    17  H    0.044708
    18  H    0.048408
    19  C   -0.128288
    20  C   -0.067337
    21  H    0.042852
    22  H    0.041808
    23  H    0.043209
    24  C   -0.155982
    25  H    0.108402
    26  C   -0.072174
    27  H    0.059966
    28  H    0.064881
 Sum of Mulliken charges =   0.00000

 Dipole moment (field-independent basis, Debye):
    X=             -0.2247    Y=             -0.1560    Z=              0.1064  Tot=              0.2935
 N-N= 3.104064998920D+02 E-N=-5.029917281297D+02  KE=-7.912378340042D+01
 Leave Link  601 at Mon Jul 26 19:32:37 2021, MaxMem=   131072000 cpu:               0.0 elap:               0.0
 (Enter /opt/g16/l9999.exe)
 1\1\GINC-TOTEM\FOpt\RPM3\ZDO\C10H18\JRAMOS\26-Jul-2021\0\\#p opt pm3\\
 Conformer number 067. Energy MM = 23.486 kcal/mol\\0,1\C,-0.8053374732
 ,-1.0928181041,-0.6448688833\H,-0.9729922999,-2.1043313915,-1.06507438
 06\H,-0.6249991137,-0.4238497071,-1.5156244568\C,-2.0437473763,-0.6765
 559054,0.0844636403\C,-2.450893549,-1.5680617909,1.2046362751\H,-2.888
 0704644,-2.49817216,0.8175815602\H,-1.5671065853,-1.8394735436,1.80793
 45667\H,-3.1874047647,-1.1041788229,1.8725979782\C,-2.7600353498,0.410

 Normal termination of Gaussian 16 at Mon Jul 26 19:32:37 2021.
