 Gaussian 16, Revision A.03,
 Gaussian 16:  ES64L-G16RevA.03 25-Dec-2016

 ----------
 #p opt pm3
 ----------

 -------------------------------------------------
 Conformer number 189. Energy MM = 23.692 kcal/mol
 -------------------------------------------------
 Symbolic Z-matrix:
 Charge =  0 Multiplicity = 1

 SCF Done:  E(RPM3) = -0.195704051184E-01 A.U. after   12 cycles
 SCF Done:  E(RPM3) = -0.247616877622E-01 A.U. after   11 cycles
 SCF Done:  E(RPM3) = -0.257229290477E-01 A.U. after   11 cycles
 SCF Done:  E(RPM3) = -0.264872810026E-01 A.U. after   11 cycles
 SCF Done:  E(RPM3) = -0.266838394126E-01 A.U. after   10 cycles
 SCF Done:  E(RPM3) = -0.268905373305E-01 A.U. after   11 cycles
 SCF Done:  E(RPM3) = -0.269613928070E-01 A.U. after   11 cycles
 SCF Done:  E(RPM3) = -0.269834664933E-01 A.U. after   10 cycles
 SCF Done:  E(RPM3) = -0.270472216887E-01 A.U. after   11 cycles
 SCF Done:  E(RPM3) = -0.264551122304E-01 A.U. after   12 cycles
 SCF Done:  E(RPM3) = -0.275484702862E-01 A.U. after   10 cycles
 SCF Done:  E(RPM3) = -0.275620361602E-01 A.U. after    9 cycles
 SCF Done:  E(RPM3) = -0.275709233940E-01 A.U. after    9 cycles
 SCF Done:  E(RPM3) = -0.275725568809E-01 A.U. after    9 cycles
 SCF Done:  E(RPM3) = -0.275725354436E-01 A.U. after    9 cycles
 SCF Done:  E(RPM3) = -0.275729549356E-01 A.U. after    9 cycles
 SCF Done:  E(RPM3) = -0.275729850914E-01 A.U. after    8 cycles
 SCF Done:  E(RPM3) = -0.275730210894E-01 A.U. after    8 cycles
 SCF Done:  E(RPM3) = -0.275730501352E-01 A.U. after    8 cycles
 SCF Done:  E(RPM3) = -0.275730647775E-01 A.U. after    8 cycles
 Optimization completed.
    -- Stationary point found.

                         Standard orientation:
 ---------------------------------------------------------------------
 Center     Atomic      Atomic             Coordinates (Angstroms)
 Number     Number       Type             X           Y           Z
 ---------------------------------------------------------------------
      1          6           0       -1.197575   -0.400048    1.225899
      2          1           0       -1.771331   -1.101782    1.863769
      3          1           0       -1.352165    0.610325    1.667436
      4          6           0       -1.768088   -0.455483   -0.155962
      5          6           0       -1.701338   -1.785359   -0.821400
      6          1           0       -1.890222   -1.731400   -1.900875
      7          1           0       -0.701820   -2.231121   -0.673231
      8          1           0       -2.439461   -2.471873   -0.385570
      9          6           0       -2.320358    0.598529   -0.771416
     10          1           0       -2.729501    0.482999   -1.783591
     11          6           0       -2.434753    1.954248   -0.192521
     12          1           0       -3.487538    2.259478   -0.128573
     13          1           0       -1.912564    2.687002   -0.821791
     14          1           0       -2.004885    2.017517    0.820982
     15          6           0        2.552053   -1.070359   -0.686016
     16          1           0        3.503382   -1.442410   -0.282930
     17          1           0        2.674429   -0.945666   -1.769990
     18          1           0        1.789443   -1.850306   -0.521782
     19          6           0        2.177207    0.215118   -0.041448
     20          6           0        3.023603    1.381180   -0.412530
     21          1           0        2.738632    2.298413    0.119560
     22          1           0        2.948944    1.586082   -1.489321
     23          1           0        4.079671    1.180585   -0.186338
     24          6           0        1.157048    0.344422    0.817504
     25          1           0        0.925916    1.327522    1.249538
     26          6           0        0.280135   -0.772194    1.256769
     27          1           0        0.446414   -1.679902    0.623100
     28          1           0        0.575062   -1.055788    2.286330
 ---------------------------------------------------------------------

 The electronic state is 1-A.
 Alpha  occ. eigenvalues --   -1.47907  -1.35301  -1.17842  -1.10538  -1.01419
 Alpha  occ. eigenvalues --   -0.94675  -0.86775  -0.79507  -0.66542  -0.65264
 Alpha  occ. eigenvalues --   -0.60659  -0.58988  -0.57934  -0.56251  -0.55588
 Alpha  occ. eigenvalues --   -0.54268  -0.51368  -0.49636  -0.48421  -0.48266
 Alpha  occ. eigenvalues --   -0.47966  -0.47667  -0.47206  -0.46228  -0.45482
 Alpha  occ. eigenvalues --   -0.44004  -0.41693  -0.34810  -0.34134
 Alpha virt. eigenvalues --    0.03913   0.04277   0.12316   0.12656   0.13169
 Alpha virt. eigenvalues --    0.13518   0.13871   0.14330   0.14902   0.15187
 Alpha virt. eigenvalues --    0.15459   0.15848   0.15956   0.16062   0.16328

 Mulliken charges:
               1
     1  C   -0.058816
     2  H    0.052786
     3  H    0.063251
     4  C   -0.124259
     5  C   -0.076964
     6  H    0.043607
     7  H    0.049854
     8  H    0.044269
     9  C   -0.150270
    10  H    0.097438
    11  C   -0.077882
    12  H    0.043216
    13  H    0.044887
    14  H    0.047177
    15  C   -0.075446
    16  H    0.045404
    17  H    0.045430
    18  H    0.048821
    19  C   -0.125343
    20  C   -0.067548
    21  H    0.041092
    22  H    0.044214
    23  H    0.042481
    24  C   -0.150705
    25  H    0.101231
    26  C   -0.072605
    27  H    0.069467
    28  H    0.055213
 Sum of Mulliken charges =   0.00000

 Dipole moment (field-independent basis, Debye):
    X=              0.1804    Y=             -0.1690    Z=              0.0018  Tot=              0.2472
 N-N= 3.142437266664D+02 E-N=-5.107057253503D+02  KE=-7.911009067919D+01
 Leave Link  601 at Mon Jul 26 19:32:35 2021, MaxMem=   131072000 cpu:               0.0 elap:               0.0
 (Enter /opt/g16/l9999.exe)
 1\1\GINC-TOTEM\FOpt\RPM3\ZDO\C10H18\JRAMOS\26-Jul-2021\0\\#p opt pm3\\
 Conformer number 189. Energy MM = 23.692 kcal/mol\\0,1\C,-0.9704077172
 ,-1.5204707063,-0.0589598582\H,-1.2676716576,-2.4413219855,-0.59948943
 3\H,-1.372660557,-1.6289244329,0.9735793336\C,-1.6073843582,-0.3530999
 94,-0.7442373553\C,-1.2150884339,-0.1557473276,-2.1665555557\H,-1.4952
 840024,0.8323983093,-2.552449104\H,-0.1214190102,-0.2650266191,-2.2744
 456044\H,-1.6894669436,-0.9123811577,-2.8057308045\C,-2.484518586,0.46

 Normal termination of Gaussian 16 at Mon Jul 26 19:32:35 2021.
