 Gaussian 16, Revision A.03,
 Gaussian 16:  ES64L-G16RevA.03 25-Dec-2016

 ----------
 #p opt pm3
 ----------

 -------------------------------------------------
 Conformer number 166. Energy MM = 23.242 kcal/mol
 -------------------------------------------------
 Symbolic Z-matrix:
 Charge =  0 Multiplicity = 1

 SCF Done:  E(RPM3) = -0.217893779241E-01 A.U. after   12 cycles
 SCF Done:  E(RPM3) = -0.260037404273E-01 A.U. after   11 cycles
 SCF Done:  E(RPM3) = -0.268275314272E-01 A.U. after   11 cycles
 SCF Done:  E(RPM3) = -0.271477299268E-01 A.U. after   11 cycles
 SCF Done:  E(RPM3) = -0.272583471839E-01 A.U. after   10 cycles
 SCF Done:  E(RPM3) = -0.276324348143E-01 A.U. after   11 cycles
 SCF Done:  E(RPM3) = -0.278264736513E-01 A.U. after   12 cycles
 SCF Done:  E(RPM3) = -0.279728720864E-01 A.U. after   11 cycles
 SCF Done:  E(RPM3) = -0.280507434384E-01 A.U. after   10 cycles
 SCF Done:  E(RPM3) = -0.280948973058E-01 A.U. after   11 cycles
 SCF Done:  E(RPM3) = -0.281567486506E-01 A.U. after    9 cycles
 SCF Done:  E(RPM3) = -0.281660078636E-01 A.U. after   10 cycles
 SCF Done:  E(RPM3) = -0.281687512456E-01 A.U. after    9 cycles
 SCF Done:  E(RPM3) = -0.281697959790E-01 A.U. after    9 cycles
 SCF Done:  E(RPM3) = -0.281704178284E-01 A.U. after    9 cycles
 SCF Done:  E(RPM3) = -0.281709385433E-01 A.U. after    9 cycles
 SCF Done:  E(RPM3) = -0.281713769403E-01 A.U. after    9 cycles
 SCF Done:  E(RPM3) = -0.281715308025E-01 A.U. after    8 cycles
 SCF Done:  E(RPM3) = -0.281715635597E-01 A.U. after    8 cycles
 SCF Done:  E(RPM3) = -0.281715724712E-01 A.U. after    8 cycles
 Optimization completed.
    -- Stationary point found.

                         Standard orientation:
 ---------------------------------------------------------------------
 Center     Atomic      Atomic             Coordinates (Angstroms)
 Number     Number       Type             X           Y           Z
 ---------------------------------------------------------------------
      1          6           0        0.883431   -0.517589    0.676795
      2          1           0        0.702314    0.355110    1.344436
      3          1           0        0.859708   -1.412895    1.329485
      4          6           0        2.231660   -0.396095    0.041223
      5          6           0        2.822975   -1.657882   -0.479530
      6          1           0        3.792775   -1.500165   -0.969836
      7          1           0        2.976970   -2.377155    0.336656
      8          1           0        2.153823   -2.129299   -1.213263
      9          6           0        2.892068    0.766675   -0.049384
     10          1           0        3.880921    0.797637   -0.525003
     11          6           0        2.385812    2.060248    0.457686
     12          1           0        2.118942    2.722656   -0.376554
     13          1           0        1.489201    1.937996    1.088459
     14          1           0        3.150287    2.570682    1.057542
     15          6           0       -2.626891    1.073988   -1.057133
     16          1           0       -3.015535    2.010332   -0.635406
     17          1           0       -3.262461    0.803189   -1.910782
     18          1           0       -1.613681    1.273618   -1.443179
     19          6           0       -2.630218   -0.007855   -0.038400
     20          6           0       -3.935511   -0.236630    0.638386
     21          1           0       -4.257277    0.666881    1.174203
     22          1           0       -3.897842   -1.057809    1.366342
     23          1           0       -4.714672   -0.480290   -0.096667
     24          6           0       -1.553062   -0.743527    0.267309
     25          1           0       -1.624161   -1.526464    1.034202
     26          6           0       -0.219585   -0.592825   -0.371962
     27          1           0       -0.052803   -1.455922   -1.048578
     28          1           0       -0.190584    0.310845   -1.022002
 ---------------------------------------------------------------------

 The electronic state is 1-A.
 Alpha  occ. eigenvalues --   -1.47330  -1.36302  -1.17453  -1.11073  -1.01433
 Alpha  occ. eigenvalues --   -0.94486  -0.86190  -0.80100  -0.67510  -0.63998
 Alpha  occ. eigenvalues --   -0.61528  -0.59105  -0.57983  -0.56720  -0.55114
 Alpha  occ. eigenvalues --   -0.53262  -0.51103  -0.50837  -0.48766  -0.48376
 Alpha  occ. eigenvalues --   -0.48316  -0.47567  -0.47209  -0.46968  -0.45918
 Alpha  occ. eigenvalues --   -0.43156  -0.41918  -0.35260  -0.34220
 Alpha virt. eigenvalues --    0.03512   0.04208   0.12064   0.12661   0.13321
 Alpha virt. eigenvalues --    0.13446   0.14003   0.14195   0.14776   0.14925
 Alpha virt. eigenvalues --    0.15502   0.15731   0.15900   0.15948   0.16346

 Mulliken charges:
               1
     1  C   -0.060711
     2  H    0.062760
     3  H    0.055387
     4  C   -0.128516
     5  C   -0.068412
     6  H    0.041279
     7  H    0.044421
     8  H    0.045410
     9  C   -0.149731
    10  H    0.098252
    11  C   -0.080707
    12  H    0.045578
    13  H    0.050083
    14  H    0.043206
    15  C   -0.076865
    16  H    0.045323
    17  H    0.046306
    18  H    0.050792
    19  C   -0.122795
    20  C   -0.068766
    21  H    0.043957
    22  H    0.041564
    23  H    0.043620
    24  C   -0.157494
    25  H    0.101210
    26  C   -0.067146
    27  H    0.058265
    28  H    0.063732
 Sum of Mulliken charges =  -0.00000

 Dipole moment (field-independent basis, Debye):
    X=             -0.2316    Y=              0.1304    Z=             -0.0992  Tot=              0.2837
 N-N= 3.069538926258D+02 E-N=-4.960712818065D+02  KE=-7.910884195278D+01
 Leave Link  601 at Mon Jul 26 19:32:35 2021, MaxMem=   131072000 cpu:               0.0 elap:               0.0
 (Enter /opt/g16/l9999.exe)
 1\1\GINC-TOTEM\FOpt\RPM3\ZDO\C10H18\JRAMOS\26-Jul-2021\0\\#p opt pm3\\
 Conformer number 166. Energy MM = 23.242 kcal/mol\\0,1\C,-0.9568209623
 ,0.8538406202,0.031484483\H,-1.0873164599,0.6167476576,1.1117194362\H,
 -0.9372214877,1.9596134604,-0.0393756493\C,-2.1182399597,0.322145065,-
 0.7462297454\C,-2.349567894,0.9424388735,-2.078395541\H,-3.1890176212,
 0.4847993717,-2.6184660501\H,-2.5681678533,2.0139518132,-1.9720846533\
 H,-1.4570579599,0.8488925734,-2.7132495851\C,-2.9245776409,-0.64297043

 Normal termination of Gaussian 16 at Mon Jul 26 19:32:35 2021.
