 Gaussian 16, Revision A.03,
 Gaussian 16:  ES64L-G16RevA.03 25-Dec-2016

 ----------
 #p opt pm3
 ----------

 -------------------------------------------------
 Conformer number 356. Energy MM = 23.287 kcal/mol
 -------------------------------------------------
 Symbolic Z-matrix:
 Charge =  0 Multiplicity = 1

 SCF Done:  E(RPM3) = -0.214936792752E-01 A.U. after   12 cycles
 SCF Done:  E(RPM3) = -0.256270072539E-01 A.U. after   11 cycles
 SCF Done:  E(RPM3) = -0.264695464431E-01 A.U. after   11 cycles
 SCF Done:  E(RPM3) = -0.271781188590E-01 A.U. after   11 cycles
 SCF Done:  E(RPM3) = -0.273522789348E-01 A.U. after   10 cycles
 SCF Done:  E(RPM3) = -0.276174999212E-01 A.U. after   11 cycles
 SCF Done:  E(RPM3) = -0.278565549483E-01 A.U. after   11 cycles
 SCF Done:  E(RPM3) = -0.279823147732E-01 A.U. after   10 cycles
 SCF Done:  E(RPM3) = -0.280335254242E-01 A.U. after   11 cycles
 SCF Done:  E(RPM3) = -0.280668110306E-01 A.U. after   11 cycles
 SCF Done:  E(RPM3) = -0.281015652334E-01 A.U. after   10 cycles
 SCF Done:  E(RPM3) = -0.281092576096E-01 A.U. after    9 cycles
 SCF Done:  E(RPM3) = -0.281170640595E-01 A.U. after   10 cycles
 SCF Done:  E(RPM3) = -0.281179183378E-01 A.U. after    9 cycles
 SCF Done:  E(RPM3) = -0.281187153976E-01 A.U. after    9 cycles
 SCF Done:  E(RPM3) = -0.281192743292E-01 A.U. after    9 cycles
 SCF Done:  E(RPM3) = -0.281194971868E-01 A.U. after    9 cycles
 SCF Done:  E(RPM3) = -0.281198311624E-01 A.U. after    9 cycles
 SCF Done:  E(RPM3) = -0.281200292984E-01 A.U. after    9 cycles
 SCF Done:  E(RPM3) = -0.281200584903E-01 A.U. after    8 cycles
 Optimization completed.
    -- Stationary point found.

                         Standard orientation:
 ---------------------------------------------------------------------
 Center     Atomic      Atomic             Coordinates (Angstroms)
 Number     Number       Type             X           Y           Z
 ---------------------------------------------------------------------
      1          6           0        0.850230   -0.146962    0.669656
      2          1           0        1.037987   -1.216999    0.917161
      3          1           0        0.499256    0.327398    1.606972
      4          6           0        2.124319    0.498447    0.226227
      5          6           0        2.174633    1.981486    0.331060
      6          1           0        3.114428    2.401323   -0.051407
      7          1           0        1.351941    2.441514   -0.234622
      8          1           0        2.071936    2.297402    1.378392
      9          6           0        3.175583   -0.199600   -0.225321
     10          1           0        4.087586    0.326074   -0.536565
     11          6           0        3.215352   -1.673196   -0.342358
     12          1           0        2.360634   -2.153801    0.162837
     13          1           0        4.135530   -2.075611    0.100482
     14          1           0        3.192483   -1.976212   -1.397634
     15          6           0       -2.949360    1.211256   -0.596892
     16          1           0       -3.521878    1.152945   -1.532214
     17          1           0       -3.528186    1.818484    0.111540
     18          1           0       -2.010419    1.747844   -0.811262
     19          6           0       -2.700571   -0.147943   -0.050165
     20          6           0       -3.914295   -0.880243    0.402398
     21          1           0       -3.687223   -1.886917    0.777516
     22          1           0       -4.631329   -0.987594   -0.422890
     23          1           0       -4.418761   -0.331666    1.209584
     24          6           0       -1.484072   -0.702203    0.038079
     25          1           0       -1.371292   -1.711438    0.456299
     26          6           0       -0.224780   -0.049032   -0.406059
     27          1           0        0.121293   -0.541257   -1.337161
     28          1           0       -0.406214    1.016446   -0.676773
 ---------------------------------------------------------------------

 The electronic state is 1-A.
 Alpha  occ. eigenvalues --   -1.47345  -1.36328  -1.17288  -1.11255  -1.01492
 Alpha  occ. eigenvalues --   -0.94425  -0.86176  -0.80121  -0.67393  -0.64418
 Alpha  occ. eigenvalues --   -0.61364  -0.58805  -0.58518  -0.55876  -0.55098
 Alpha  occ. eigenvalues --   -0.53301  -0.51724  -0.50924  -0.49152  -0.48394
 Alpha  occ. eigenvalues --   -0.48072  -0.47644  -0.47168  -0.47054  -0.44910
 Alpha  occ. eigenvalues --   -0.44010  -0.41691  -0.35126  -0.34349
 Alpha virt. eigenvalues --    0.03549   0.04167   0.12058   0.12682   0.13199
 Alpha virt. eigenvalues --    0.13510   0.13908   0.14254   0.14679   0.14956
 Alpha virt. eigenvalues --    0.15690   0.15698   0.15848   0.16043   0.16336

 Mulliken charges:
               1
     1  C   -0.060603
     2  H    0.060293
     3  H    0.057814
     4  C   -0.128355
     5  C   -0.068100
     6  H    0.041218
     7  H    0.044743
     8  H    0.044790
     9  C   -0.149878
    10  H    0.098365
    11  C   -0.079962
    12  H    0.048734
    13  H    0.043098
    14  H    0.046096
    15  C   -0.076260
    16  H    0.046296
    17  H    0.045412
    18  H    0.049894
    19  C   -0.122813
    20  C   -0.068741
    21  H    0.041542
    22  H    0.043600
    23  H    0.044019
    24  C   -0.156923
    25  H    0.100890
    26  C   -0.067321
    27  H    0.058968
    28  H    0.063185
 Sum of Mulliken charges =  -0.00000

 Dipole moment (field-independent basis, Debye):
    X=             -0.2593    Y=              0.1189    Z=             -0.0537  Tot=              0.2903
 N-N= 3.060044641971D+02 E-N=-4.941699331343D+02  KE=-7.910679674768D+01
 Leave Link  601 at Mon Jul 26 19:32:50 2021, MaxMem=   131072000 cpu:               0.0 elap:               0.0
 (Enter /opt/g16/l9999.exe)
 1\1\GINC-TOTEM\FOpt\RPM3\ZDO\C10H18\JRAMOS\26-Jul-2021\0\\#p opt pm3\\
 Conformer number 356. Energy MM = 23.287 kcal/mol\\0,1\C,-0.8954277109
 ,-0.6938172117,0.2438241224\H,-1.3387014341,-0.713049011,1.2658957155\
 H,-0.4160717179,-1.6817492564,0.0990165325\C,-1.9777606498,-0.50676652
 18,-0.771090755\C,-1.6539067026,-0.940191446,-2.1567987445\H,-2.467546
 2229,-0.7359646211,-2.865346972\H,-0.755423755,-0.426400883,-2.5271909
 158\H,-1.4519675313,-2.0198441416,-2.1855177774\C,-3.1799167663,0.0026

 Normal termination of Gaussian 16 at Mon Jul 26 19:32:50 2021.
