 Gaussian 16, Revision A.03,
 Gaussian 16:  ES64L-G16RevA.03 25-Dec-2016

 ----------
 #p opt pm3
 ----------

 -------------------------------------------------
 Conformer number 393. Energy MM = 23.486 kcal/mol
 -------------------------------------------------
 Symbolic Z-matrix:
 Charge =  0 Multiplicity = 1

 SCF Done:  E(RPM3) = -0.193225573654E-01 A.U. after   12 cycles
 SCF Done:  E(RPM3) = -0.244159946695E-01 A.U. after   11 cycles
 SCF Done:  E(RPM3) = -0.248079548958E-01 A.U. after   11 cycles
 SCF Done:  E(RPM3) = -0.262454589374E-01 A.U. after   11 cycles
 SCF Done:  E(RPM3) = -0.265653086734E-01 A.U. after   11 cycles
 SCF Done:  E(RPM3) = -0.268419700595E-01 A.U. after   11 cycles
 SCF Done:  E(RPM3) = -0.272182032771E-01 A.U. after   12 cycles
 SCF Done:  E(RPM3) = -0.272426607039E-01 A.U. after   11 cycles
 SCF Done:  E(RPM3) = -0.273683202636E-01 A.U. after   11 cycles
 SCF Done:  E(RPM3) = -0.275202664839E-01 A.U. after   11 cycles
 SCF Done:  E(RPM3) = -0.276434847194E-01 A.U. after    9 cycles
 SCF Done:  E(RPM3) = -0.276458921119E-01 A.U. after    9 cycles
 SCF Done:  E(RPM3) = -0.276477302291E-01 A.U. after    9 cycles
 SCF Done:  E(RPM3) = -0.276482663693E-01 A.U. after    9 cycles
 SCF Done:  E(RPM3) = -0.276484388220E-01 A.U. after    8 cycles
 SCF Done:  E(RPM3) = -0.276484891138E-01 A.U. after    8 cycles
 SCF Done:  E(RPM3) = -0.276485470213E-01 A.U. after    8 cycles
 SCF Done:  E(RPM3) = -0.276485839395E-01 A.U. after    8 cycles
 SCF Done:  E(RPM3) = -0.276486142318E-01 A.U. after    8 cycles
 SCF Done:  E(RPM3) = -0.276486399374E-01 A.U. after    8 cycles
 Optimization completed.
    -- Stationary point found.

                         Standard orientation:
 ---------------------------------------------------------------------
 Center     Atomic      Atomic             Coordinates (Angstroms)
 Number     Number       Type             X           Y           Z
 ---------------------------------------------------------------------
      1          6           0        1.004858   -0.669403    0.941394
      2          1           0        1.385339   -1.465828    1.611306
      3          1           0        0.824538    0.217359    1.588999
      4          6           0        2.060822   -0.366712   -0.074568
      5          6           0        2.469338   -1.516007   -0.927546
      6          1           0        1.575261   -2.068141   -1.265905
      7          1           0        3.033558   -1.207732   -1.816609
      8          1           0        3.096386   -2.214924   -0.358015
      9          6           0        2.622728    0.840413   -0.222437
     10          1           0        3.398773    0.988464   -0.984717
     11          6           0        2.281224    2.036474    0.577010
     12          1           0        1.524737    1.823905    1.350599
     13          1           0        1.882238    2.829387   -0.069505
     14          1           0        3.172472    2.433126    1.080678
     15          6           0       -3.270165   -0.793829    0.554418
     16          1           0       -3.936110   -0.275149    1.256542
     17          1           0       -2.686736   -1.533475    1.127414
     18          1           0       -3.899302   -1.344000   -0.157956
     19          6           0       -2.392298    0.169855   -0.158844
     20          6           0       -3.088789    1.336586   -0.764616
     21          1           0       -3.859464    1.002077   -1.472321
     22          1           0       -3.588219    1.934615    0.009951
     23          1           0       -2.405534    2.002383   -1.308236
     24          6           0       -1.065155    0.021633   -0.267300
     25          1           0       -0.465662    0.771764   -0.801324
     26          6           0       -0.299290   -1.121347    0.293717
     27          1           0       -0.919231   -1.679940    1.030059
     28          1           0       -0.072691   -1.839875   -0.528332
 ---------------------------------------------------------------------

 The electronic state is 1-A.
 Alpha  occ. eigenvalues --   -1.47903  -1.35722  -1.17831  -1.10227  -1.01280
 Alpha  occ. eigenvalues --   -0.94897  -0.86876  -0.79492  -0.67049  -0.64123
 Alpha  occ. eigenvalues --   -0.61246  -0.59909  -0.57803  -0.56517  -0.55214
 Alpha  occ. eigenvalues --   -0.53680  -0.51063  -0.50316  -0.48455  -0.48256
 Alpha  occ. eigenvalues --   -0.47918  -0.47611  -0.47258  -0.46945  -0.45744
 Alpha  occ. eigenvalues --   -0.42773  -0.42397  -0.35103  -0.34030
 Alpha virt. eigenvalues --    0.03678   0.04295   0.12391   0.12449   0.13237
 Alpha virt. eigenvalues --    0.13579   0.13946   0.14237   0.14753   0.14953
 Alpha virt. eigenvalues --    0.15499   0.15819   0.15908   0.16093   0.16348

 Mulliken charges:
               1
     1  C   -0.060988
     2  H    0.053660
     3  H    0.065765
     4  C   -0.126687
     5  C   -0.076920
     6  H    0.050436
     7  H    0.043602
     8  H    0.045100
     9  C   -0.151759
    10  H    0.097864
    11  C   -0.079834
    12  H    0.049721
    13  H    0.044633
    14  H    0.044023
    15  C   -0.074991
    16  H    0.044708
    17  H    0.048408
    18  H    0.045923
    19  C   -0.128288
    20  C   -0.067337
    21  H    0.042852
    22  H    0.043209
    23  H    0.041808
    24  C   -0.155982
    25  H    0.108402
    26  C   -0.072175
    27  H    0.059966
    28  H    0.064881
 Sum of Mulliken charges =  -0.00000

 Dipole moment (field-independent basis, Debye):
    X=             -0.2247    Y=             -0.1560    Z=              0.1064  Tot=              0.2935
 N-N= 3.104066057888D+02 E-N=-5.029919388911D+02  KE=-7.912378411537D+01
 Leave Link  601 at Mon Jul 26 19:32:52 2021, MaxMem=   131072000 cpu:               0.0 elap:               0.0
 (Enter /opt/g16/l9999.exe)
 1\1\GINC-TOTEM\FOpt\RPM3\ZDO\C10H18\JRAMOS\26-Jul-2021\0\\#p opt pm3\\
 Conformer number 393. Energy MM = 23.486 kcal/mol\\0,1\C,-1.2194068017
 ,-0.9424539823,0.4369322896\H,-1.7981300083,-1.6732906657,1.0359283496
 \H,-0.8476207761,-1.4989132591,-0.4521026434\C,-2.1442164366,0.1556087
 562,0.0152163012\C,-2.7953061056,0.8997532796,1.127722108\H,-2.0521953
 289,1.1277419463,1.9116352253\H,-3.2450362647,1.8460204347,0.801945331
 \H,-3.5870904176,0.2923798695,1.5862144223\C,-2.3943896526,0.463394227

 Normal termination of Gaussian 16 at Mon Jul 26 19:32:52 2021.
